
                                 *****************
                                 * O   R   C   A *
                                 *****************

                                            #,                                       
                                            ###                                      
                                            ####                                     
                                            #####                                    
                                            ######                                   
                                           ########,                                 
                                     ,,################,,,,,                         
                               ,,#################################,,                 
                          ,,##########################################,,             
                       ,#########################################, ''#####,          
                    ,#############################################,,   '####,        
                  ,##################################################,,,,####,       
                ,###########''''           ''''###############################       
              ,#####''   ,,,,##########,,,,          '''####'''          '####       
            ,##' ,,,,###########################,,,                        '##       
           ' ,,###''''                  '''############,,,                           
         ,,##''                                '''############,,,,        ,,,,,,###''
      ,#''                                            '''#######################'''  
     '                                                          ''''####''''         
             ,#######,   #######,   ,#######,      ##                                
            ,#'     '#,  ##    ##  ,#'     '#,    #''#        ,####,    ,#,          
            ##       ##  ##   ,#'  ##            #'  '#       #'       ,# #          
            ##       ##  #######   ##           ,######,      #####,      #          
            '#,     ,#'  ##    ##  '#,     ,#' ,#      #,     #,   #      #          
             '#######'   ##     ##  '#######'  #'      '#     '####' #    #          



                #########################################################
                #                        -***-                          #
                #          Department of theory and spectroscopy        #
                #                                                       #
                #                      Frank Neese                      #
                #                                                       #
                #     Directorship, Architecture, Infrastructure        #
                #                    SHARK, DRIVERS                     #
                #        Core code/Algorithms in most modules           #
                #                                                       #
                #        Max Planck Institute fuer Kohlenforschung      #
                #                Kaiser Wilhelm Platz 1                 #
                #                 D-45470 Muelheim/Ruhr                 #
                #                      Germany                          #
                #                                                       #
                #                  All rights reserved                  #
                #                        -***-                          #
                #########################################################


                         Program Version 6.1.1  -  RELEASE   -
                                (GIT: $487d211cc3$)
                          ($2025-11-21 10:33:24 +0100$)


 With contributions from (in alphabetic order):
[Max-Planck-Institut fuer Kohlenforschung]                               
  Daniel Aravena         : Magnetic Suceptibility                        
  Michael Atanasov       : Ab Initio Ligand Field Theory (pilot matlab implementation)
  Alexander A. Auer      : GIAO ZORA, VPT2 properties, NMR spectrum      
  Ute Becker             : All parallelization in ORCA, NUMFREQ, NUMCALC 
  Giovanni Bistoni       : ED, misc. LED, open-shell LED, HFLD           
  Dmytro Bykov           : pre 5.0 version of the SCF Hessian            
  Marcos Casanova-Páez   : Triplet and SCS-CIS(D). UHF-(DLPNO)-IP/EA/STEOM-CCSD. UHF-CVS-IP/STEOM-CCSD   
  Vijay G. Chilkuri      : MRCI spin determinant printing, contributions to CSF-ICE 
  Pauline Colinet        : FMM embedding                                 
  Dipayan Datta          : RHF DLPNO-CCSD density                        
  Achintya Kumar Dutta   : EOM-CC, STEOM-CC                              
  Nicolas Foglia         : Exact transition moments, OPA infrastructure, MCD improvements    
  Dmitry Ganyushin       : Spin-Orbit,Spin-Spin,Magnetic field MRCI      
  Miquel Garcia-Rates    : C-PCM and meta-GGA Hessian, CCSD/C-PCM, Gaussian charge scheme 
  Tiago L. C. Gouveia    : GS-ROHF, GS-ROCIS                             
  Yang Guo               : DLPNO-NEVPT2, F12-NEVPT2, CIM, IAO-localization        
  Andreas Hansen         : Spin unrestricted coupled pair/coupled cluster methods 
  Ingolf Harden          : AUTO-CI MPn and infrastructure                
  Benjamin Helmich-Paris : MC-RPA, TRAH-(SCF,CASSCF), AVAS, COSX integrals, SCF dyn. polar., MC-PDFT, srDFT 
  Lee Huntington         : MR-EOM, pCC                                   
  Robert Izsak           : Overlap fitted RIJCOSX, COSX-SCS-MP3, EOM     
  Riya Kayal             : Wick's Theorem for AUTO-CI, AUTO-CI UHF-CCSDT 
  Emily Kempfer          : AUTO-CI RHF CISDT and CCSDT, approximate NEVPT4
  Christian Kollmar      : KDIIS, OOCD, Brueckner-CCSD(T), CCSD density, CASPT2, CASPT2-K, improved NEVPT2 
  Axel Koslowski         : Symmetry handling                             
  Simone Kossmann        : meta-GGA functionals, TD-DFT gradient, OOMP2, (MP2 Hessian; deprecated post 5.0) 
  Lucas Lang             : DCDCAS, Hyperfine gauge corrections, ICE-SOC+SSC
  Marvin Lechner         : AUTO-CI (C++ implementation), FIC-MRCC        
  Spencer Leger          : CASSCF response                               
  Dagmar Lenk            : GEPOL surface, SMD, ORCA-2-JSON               
  Dimitrios Liakos       : Extrapolation schemes; Compound Job, Property file
  Dimitrios Manganas     : Further ROCIS development; embedding schemes. LFT, Crystal Embedding 
  Dimitrios Pantazis     : SARC Basis sets                               
  Anastasios Papadopoulos: AUTO-CI, single reference methods and gradients 
  Taras Petrenko         : pre 6.0 DFT Hessian and TD-DFT gradient,  ECA, NRVS 
  Petra Pikulova         : Analytic Raman intensities                    
  Peter Pinski           : DLPNO-MP2, DLPNO-MP2 Gradient                 
  Shashank Vittal Rao    : ES-AILFT, MagRelax                            
  Christoph Reimann      : Effective Core Potentials                     
  Marius Retegan         : Local ZFS, SOC                                
  Christoph Riplinger    : Optimizer, TS searches, QM/MM, DLPNO-CCSD(T), (RO)-DLPNO pert. Triples 
  Michael Roemelt        : Original ROCIS implementation, recursive CI coupling coefficients
  Masaaki Saitow         : Open-shell DLPNO-CCSD energy and density      
  Barbara Sandhoefer     : DKH picture change effects                    
  Yorick L. A. Schmerwitz: GMF and freeze-and-release deltaSCF, NEB S-IDPP initial path                    
  Kantharuban Sivalingam : CASSCF convergence/infrastructure, NEVPT2, NEVPT3, NEVPT4(SD), FIC-MRCI and CEPA variants
  Bernardo de Souza      : ESD, SOC TD-DFT                               
  Georgi L. Stoychev     : AutoAux, RI-MP2 NMR, DLPNO-MP2 response, X2C  
  Van Anh Tran           : RI-MP2 g-tensors                              
  Willem Van den Heuvel  : Paramagnetic NMR                              
  Zikuan Wang            : NOTCH, Electric field optimization            
  Frank Wennmohs         : Technical directorship and infrastructure     
  Hang Xu                : AUTO-CI-Response properties                   
                                                                         
[FACCTs GmbH]                                                            
  Markus Bursch, Nicolas Foglia, Miquel Garcia-Rates, Ingolf Harden, Hagen Neugebauer, Anastasios Papadopoulos, 
  Christoph Riplinger, Bernardo de Souza, Georgi L. Stoychev                                                    
                                                                 
  APM, various basis sets, CI-OPT, improved COSX, DLPNO-Multilevel,           
  DOCKER, DRACO, updates on ESD, Fragmentator, GOAT, IRC, LR-CPCM, L-BFGS, MBIS, meta-GGA TD-DFT gradient, ML-optimized integration grids, 
  MM, NACMEs, nearIR, NEB, NEB-TS, NL-DFT gradient (VV10), 2- and 3-layer-ONIOM, interface openCOSMO-RS, QMMM,   
  Crystal-QMMM, RESP, rigid body optimization, SF, symmetry and pop. for TD-DFT, various functionals, SOLVATOR                                   
                                                                         
[Other institutions]                                                     
  V. Asgeirsson          : NEB                                           
  Christoph Bannwarth    : sTDA-DFT, sTD-DFT, PBEh-3c, B97-3c, D3        
  Giovanni Bistoni       : ETS/NOCV, ADLD/ADEX, COVALED                  
  Martin Brehm           : Molecular dynamics                            
  Ronald Cardenas        : ETS/NOCV                                      
  Martina Colucci        : COVALED                                       
  Sebastian Ehlert       : rSCAN, r2SCAN, r2SCAN-3c, D4, dhf basis sets  
  Marvin Friede          : D4 for Fr, Ra, Ac-Lr                          
  Lars Goerigk           : TD-DFT with DH, B97 family of functionals     
  Stefan Grimme          : VdW corrections, initial TS optimization, DFT functionals, gCP, sTDA/sTD-DF 
  Waldemar Hujo          : DFT-NL                                        
  H. Jonsson             : NEB                                           
  Holger Kruse           : gCP                                           
  Marcel Mueller         : wB97X-3c, vDZP basis set                      
  Hagen Neugebauer       : wr2SCAN, Native XTB                           
  Gianluca Regni         : ADLD/ADEX                                     
  Tobias Risthaus        : pre 6.0 range-separated hybrid DFT and stability analysis
  Lukas Wittmann         : regularized MP2, r2SCAN double-hybrids, wr2SCAN        
                                                                         
We gratefully acknowledge several colleagues who have allowed us to      
interface, adapt or use parts of their codes:                            
  Ed Valeev, F. Pavosevic, A. Kumar             : LibInt (2-el integral package), F12 methods 
  Garnet Chan, S. Sharma, J. Yang, R. Olivares  : DMRG                   
  Ulf Ekstrom                                   : XCFun DFT Library      
  Mihaly Kallay                                 : mrcc  (arbitrary order and MRCC methods)
  Frank Weinhold                                : gennbo (NPA and NBO analysis)           
  Simon Mueller                                 : openCOSMO-RS                            
  Christopher J. Cramer and Donald G. Truhlar   : smd solvation model                     
  S Lehtola, MJT Oliveira, MAL Marques          : LibXC Library                           
  Liviu Ungur et al                             : ANISO software                          


 Your calculation uses the libint2 library for the computation of 2-el integrals
 For citations please refer to: http://libint.valeyev.net

 Your ORCA version has been built with support for libXC version: 7.0.0
 For citations please refer to: https://libxc.gitlab.io

 This ORCA versions uses:
   CBLAS   interface :  Fast vector & matrix operations
   LAPACKE interface :  Fast linear algebra routines
   SCALAPACK package :  Parallel linear algebra routines
   Shared memory     :  Shared parallel matrices


  ***********************************
  * Starting time: Wed Apr 29 09:18:33 2026
  * Host name:     MacBook-Pro-M5.local
  * Process ID:    56682
  * Working dir.:  /Users/adam/cclib/data/ORCA/basicORCA6.1
  ***********************************

Warning: RI is on but no J-basis has been assigned. Assigning Def2/J (nothing to worry about!)
================================================================================

----- Orbital basis set information -----
Your calculation utilizes the basis: STO-3G
   H-Ne       : W. J. Hehre, R. F. Stewart and J. A. Pople, J. Chem. Phys. 2657 (1969).
   Na-Ar      : W. J. Hehre, R. Ditchfield, R. F. Stewart and J. A. Pople, J. Chem. Phys. 2769 (1970).
   K,Ca,Ga-Kr : W. J. Pietro, B. A. Levy, W. J. Hehre and R. F. Stewart, J. Am. Chem. Soc. 19, 2225 (1980).
   Sc-Zn,Y-Cd : W. J. Pietro and W. J. Hehre, J. Comp. Chem. 4, 241 (1983).

----- AuxJ basis set information -----
Your calculation utilizes the auxiliary basis: def2/J
   H-Rn: F. Weigend, Phys. Chem. Chem. Phys. 8, 1057 (2006).
   Fr-Lr: K. Eichkorn, F. Weigend, O. Treutler, R. Ahlrichs; Theor. Chem. Acc. 97, 119 (1997).

================================================================================
                                        WARNINGS
                       Please study these warnings very carefully!
================================================================================


WARNING: CIS/ROCIS methods need fully converged wavefunctions
  ===> : Setting SCFConvForced true
         You can overwrite this default with %scf ConvForced false 


================================================================================
                                       INPUT FILE
================================================================================
NAME = dvb_td.inp
|  1> ! rks b3lyp sto-3g usesym
|  2> 
|  3> %tddft
|  4>  nroots 5
|  5>  triplets true
|  6>  end
|  7> 
|  8> %output
|  9>  printlevel large
| 10>  print[ p_mos ] 1
| 11>  print[ p_overlap ] 1
| 12>  end 
| 13> 
| 14> * xyz 0 1
| 15>  C       -1.4152533224   0.2302217854   0.0000000000
| 16>  C        1.4152533224  -0.2302217854   0.0000000000
| 17>  C       -0.4951331558   1.3144608674   0.0000000000
| 18>  C        0.4951331558  -1.3144608674   0.0000000000
| 19>  C        0.8894090436   1.0909493743   0.0000000000
| 20>  C       -0.8894090436  -1.0909493743   0.0000000000
| 21>  H       -0.8795511985   2.3437343748   0.0000000000
| 22>  H        0.8795511985  -2.3437343748   0.0000000000
| 23>  H        1.5779041557   1.9450061275   0.0000000000
| 24>  H       -1.5779041557  -1.9450061275   0.0000000000
| 25>  C        2.8845844962  -0.5210893778   0.0000000000
| 26>  C       -2.8845844962   0.5210893778   0.0000000000
| 27>  H        3.1403356810  -1.5919605685   0.0000000000
| 28>  H       -3.1403356810   1.5919605685   0.0000000000
| 29>  C        3.8800428103   0.3822535424   0.0000000000
| 30>  C       -3.8800428103  -0.3822535424   0.0000000000
| 31>  H        3.6946765858   1.4624389570   0.0000000000
| 32>  H       -3.6946765858  -1.4624389570   0.0000000000
| 33>  H        4.9316453546   0.0711049543   0.0000000000
| 34>  H       -4.9316453546  -0.0711049543   0.0000000000
| 35> *
| 36> %pal
| 37>  nprocs 1
| 38> end
| 39> 
| 40>                          ****END OF INPUT****
================================================================================
-----------------------
SYMMETRY HANDLING SETUP
-----------------------
Auto-detected point group .... C2h
Reduced point group       .... C2h
Root mean square distance .... 0.000000000000000 au
Maximum distance          .... 0.000000000000000 au
Threshold in use          .... 0.000100000000000 au
Time for symmetry setup   .... 0.002 s


Symmetry-perfected Cartesians for point group C2h:

Index  Symbol         Symmetry-perfected Cartesians (x, y, z; au)
   0     C      -2.67444118945816    0.43505612446839    0.00000000000000
   1     C       2.67444118945816   -0.43505612446839    0.00000000000000
   2     C      -0.93566606428616    2.48397105314258    0.00000000000000
   3     C       0.93566606428616   -2.48397105314258    0.00000000000000
   4     C       1.68073951343683    2.06159554339975    0.00000000000000
   5     C      -1.68073951343683   -2.06159554339975    0.00000000000000
   6     H      -1.66211088592721    4.42901609902915    0.00000000000000
   7     H       1.66211088592721   -4.42901609902915    0.00000000000000
   8     H       2.98180671984924    3.67552890977372    0.00000000000000
   9     H      -2.98180671984924   -3.67552890977372    0.00000000000000
  10     C       5.45107470797321   -0.98471621533742    0.00000000000000
  11     C      -5.45107470797321    0.98471621533742    0.00000000000000
  12     H       5.93437440567109   -3.00836949046658    0.00000000000000
  13     H      -5.93437440567109    3.00836949046658    0.00000000000000
  14     C       7.33221829935717    0.72235450885726    0.00000000000000
  15     C      -7.33221829935717   -0.72235450885726    0.00000000000000
  16     H       6.98192690057320    2.76360911630744    0.00000000000000
  17     H      -6.98192690057320   -2.76360911630744    0.00000000000000
  18     H       9.31945910981896    0.13436889039199    0.00000000000000
  19     H      -9.31945910981896   -0.13436889039199    0.00000000000000

Index  Symbol         Symmetry-perfected Cartesians (x, y, z; Ang)
   0     C      -1.41525332240000    0.23022178540000    0.00000000000000
   1     C       1.41525332240000   -0.23022178540000    0.00000000000000
   2     C      -0.49513315580000    1.31446086740000    0.00000000000000
   3     C       0.49513315580000   -1.31446086740000    0.00000000000000
   4     C       0.88940904360000    1.09094937430000    0.00000000000000
   5     C      -0.88940904360000   -1.09094937430000    0.00000000000000
   6     H      -0.87955119850000    2.34373437480000    0.00000000000000
   7     H       0.87955119850000   -2.34373437480000    0.00000000000000
   8     H       1.57790415570000    1.94500612750000    0.00000000000000
   9     H      -1.57790415570000   -1.94500612750000    0.00000000000000
  10     C       2.88458449620000   -0.52108937780000    0.00000000000000
  11     C      -2.88458449620000    0.52108937780000    0.00000000000000
  12     H       3.14033568100000   -1.59196056850000    0.00000000000000
  13     H      -3.14033568100000    1.59196056850000    0.00000000000000
  14     C       3.88004281030000    0.38225354240000    0.00000000000000
  15     C      -3.88004281030000   -0.38225354240000    0.00000000000000
  16     H       3.69467658580000    1.46243895700000    0.00000000000000
  17     H      -3.69467658580000   -1.46243895700000    0.00000000000000
  18     H       4.93164535460000    0.07110495430000    0.00000000000000
  19     H      -4.93164535460000   -0.07110495430000    0.00000000000000

                       ****************************
                       * Single Point Calculation *
                       ****************************

---------------------------------
CARTESIAN COORDINATES (ANGSTROEM)
---------------------------------
  C     -1.415253    0.230222    0.000000
  C      1.415253   -0.230222    0.000000
  C     -0.495133    1.314461    0.000000
  C      0.495133   -1.314461    0.000000
  C      0.889409    1.090949    0.000000
  C     -0.889409   -1.090949    0.000000
  H     -0.879551    2.343734    0.000000
  H      0.879551   -2.343734    0.000000
  H      1.577904    1.945006    0.000000
  H     -1.577904   -1.945006    0.000000
  C      2.884584   -0.521089    0.000000
  C     -2.884584    0.521089    0.000000
  H      3.140336   -1.591961    0.000000
  H     -3.140336    1.591961    0.000000
  C      3.880043    0.382254    0.000000
  C     -3.880043   -0.382254    0.000000
  H      3.694677    1.462439    0.000000
  H     -3.694677   -1.462439    0.000000
  H      4.931645    0.071105    0.000000
  H     -4.931645   -0.071105    0.000000

----------------------------
CARTESIAN COORDINATES (A.U.)
----------------------------
  NO LB      ZA    FRAG     MASS         X           Y           Z
   0 C     6.0000    0    12.011   -2.674441    0.435056    0.000000
   1 C     6.0000    0    12.011    2.674441   -0.435056    0.000000
   2 C     6.0000    0    12.011   -0.935666    2.483971    0.000000
   3 C     6.0000    0    12.011    0.935666   -2.483971    0.000000
   4 C     6.0000    0    12.011    1.680740    2.061596    0.000000
   5 C     6.0000    0    12.011   -1.680740   -2.061596    0.000000
   6 H     1.0000    0     1.008   -1.662111    4.429016    0.000000
   7 H     1.0000    0     1.008    1.662111   -4.429016    0.000000
   8 H     1.0000    0     1.008    2.981807    3.675529    0.000000
   9 H     1.0000    0     1.008   -2.981807   -3.675529    0.000000
  10 C     6.0000    0    12.011    5.451075   -0.984716    0.000000
  11 C     6.0000    0    12.011   -5.451075    0.984716    0.000000
  12 H     1.0000    0     1.008    5.934374   -3.008369    0.000000
  13 H     1.0000    0     1.008   -5.934374    3.008369    0.000000
  14 C     6.0000    0    12.011    7.332218    0.722355    0.000000
  15 C     6.0000    0    12.011   -7.332218   -0.722355    0.000000
  16 H     1.0000    0     1.008    6.981927    2.763609    0.000000
  17 H     1.0000    0     1.008   -6.981927   -2.763609    0.000000
  18 H     1.0000    0     1.008    9.319459    0.134369    0.000000
  19 H     1.0000    0     1.008   -9.319459   -0.134369    0.000000

--------------------------------
INTERNAL COORDINATES (ANGSTROEM)
--------------------------------
 C      0   0   0     0.000000000000     0.00000000     0.00000000
 C      1   0   0     2.867712703209     0.00000000     0.00000000
 C      1   2   0     1.422039207589    58.92046780     0.00000000
 C      2   1   3     1.422039207589    58.92046780   180.00000121
 C      3   1   2     1.402467286416   121.14866524     0.00000000
 C      4   2   1     1.402467286416   121.14866524     0.00000000
 H      3   1   2     1.098717973180   119.20109491   180.00000000
 H      4   2   1     1.098717973180   119.20109491   180.00000000
 H      5   3   1     1.097013426113   119.70357006   180.00000000
 H      6   4   2     1.097013426113   119.70357006   180.00000000
 C      2   1   3     1.497844469432   178.04202002   180.00000085
 C      1   2   3     1.497844469432   178.04202002     0.00000000
 H     11   2   5     1.100987636442   114.62953459   180.00000000
 H     12   1   6     1.100987636442   114.62953459   180.00000000
 C     11   2   5     1.344234237991   126.57992264     0.00000000
 C     12   1   6     1.344234237991   126.57992264     0.00000000
 H     15  11   2     1.095974984705   122.48517186     0.00000000
 H     16  12   1     1.095974984705   122.48517186     0.00000000
 H     15  11   2     1.096668297643   121.29492471   180.00000085
 H     16  12   1     1.096668297643   121.29492471   180.00000085

---------------------------
INTERNAL COORDINATES (A.U.)
---------------------------
 C      0   0   0     0.000000000000     0.00000000     0.00000000
 C      1   0   0     5.419191639833     0.00000000     0.00000000
 C      1   2   0     2.687264654042    58.92046780     0.00000000
 C      2   1   3     2.687264654042    58.92046780   180.00000121
 C      3   1   2     2.650279083110   121.14866524     0.00000000
 C      4   2   1     2.650279083110   121.14866524     0.00000000
 H      3   1   2     2.076276067727   119.20109491   180.00000000
 H      4   2   1     2.076276067727   119.20109491   180.00000000
 H      5   3   1     2.073054940588   119.70357006   180.00000000
 H      6   4   2     2.073054940588   119.70357006   180.00000000
 C      2   1   3     2.830515838436   178.04202002   180.00000085
 C      1   2   3     2.830515838436   178.04202002     0.00000000
 H     11   2   5     2.080565109708   114.62953459   180.00000000
 H     12   1   6     2.080565109708   114.62953459   180.00000000
 C     11   2   5     2.540234569643   126.57992264     0.00000000
 C     12   1   6     2.540234569643   126.57992264     0.00000000
 H     15  11   2     2.071092570722   122.48517186     0.00000000
 H     16  12   1     2.071092570722   122.48517186     0.00000000
 H     15  11   2     2.072402742299   121.29492471   180.00000085
 H     16  12   1     2.072402742299   121.29492471   180.00000085

---------------------
BASIS SET INFORMATION
---------------------
There are 2 groups of distinct atoms

 Group   1 Type C   : 6s3p contracted to 2s1p pattern {33/3}
 Group   2 Type H   : 3s contracted to 1s pattern {3}

Atom   0C    basis set group =>   1
Atom   1C    basis set group =>   1
Atom   2C    basis set group =>   1
Atom   3C    basis set group =>   1
Atom   4C    basis set group =>   1
Atom   5C    basis set group =>   1
Atom   6H    basis set group =>   2
Atom   7H    basis set group =>   2
Atom   8H    basis set group =>   2
Atom   9H    basis set group =>   2
Atom  10C    basis set group =>   1
Atom  11C    basis set group =>   1
Atom  12H    basis set group =>   2
Atom  13H    basis set group =>   2
Atom  14C    basis set group =>   1
Atom  15C    basis set group =>   1
Atom  16H    basis set group =>   2
Atom  17H    basis set group =>   2
Atom  18H    basis set group =>   2
Atom  19H    basis set group =>   2

-------------------------
BASIS SET IN INPUT FORMAT
-------------------------

 # Basis set for element : H 
 NewGTO H 
 S 3 
   1       3.4252509100      0.1543289707
   2       0.6239137300      0.5353281424
   3       0.1688554000      0.4446345420
  end;

 # Basis set for element : C 
 NewGTO C 
 S 3 
   1      71.6168370000      0.1543289700
   2      13.0450960000      0.5353281400
   3       3.5305122000      0.4446345400
 S 3 
   1       2.9412494000     -0.0999672301
   2       0.6834831000      0.3995128303
   3       0.2222899000      0.7001154705
 P 3 
   1       2.9412494000      0.1559162721
   2       0.6834831000      0.6076837282
   3       0.2222899000      0.3919573953
  end;

---------------------------------
AUXILIARY/J BASIS SET INFORMATION
---------------------------------
There are 2 groups of distinct atoms

 Group   1 Type C   : 12s5p4d2f1g contracted to 6s4p3d1f1g pattern {711111/2111/211/2/1}
 Group   2 Type H   : 5s2p1d contracted to 3s1p1d pattern {311/2/1}

Atom   0C    basis set group =>   1
Atom   1C    basis set group =>   1
Atom   2C    basis set group =>   1
Atom   3C    basis set group =>   1
Atom   4C    basis set group =>   1
Atom   5C    basis set group =>   1
Atom   6H    basis set group =>   2
Atom   7H    basis set group =>   2
Atom   8H    basis set group =>   2
Atom   9H    basis set group =>   2
Atom  10C    basis set group =>   1
Atom  11C    basis set group =>   1
Atom  12H    basis set group =>   2
Atom  13H    basis set group =>   2
Atom  14C    basis set group =>   1
Atom  15C    basis set group =>   1
Atom  16H    basis set group =>   2
Atom  17H    basis set group =>   2
Atom  18H    basis set group =>   2
Atom  19H    basis set group =>   2

-------------------------------------
AUXILIARY/J BASIS SET IN INPUT FORMAT
-------------------------------------

 # Auxiliary/J basis set for element : H 
 NewAuxJGTO H 
 S 3 
   1      15.6752927000      0.1007184237
   2       3.6063578000      0.3404257499
   3       1.2080016000      0.6491996172
 S 1 
   1       0.4726794000      1.0000000000
 S 1 
   1       0.2018100000      1.0000000000
 P 2 
   1       2.0281365000      0.5596620919
   2       0.5358730000      0.5596620919
 D 1 
   1       2.2165124000      1.0000000000
  end;

 # Auxiliary/J basis set for element : C 
 NewAuxJGTO C 
 S 7 
   1    1861.0916331000      0.0134602335
   2     642.9939764000      0.0299160374
   3     235.1105725000      0.1008649584
   4      90.7028894000      0.2370970548
   5      36.7794552000      0.3924037254
   6      15.6046273000      0.3195862154
   7       6.8907294000      0.0530104441
 S 1 
   1       3.1478850000     -1.0000000000
 S 1 
   1       1.4777287000      1.0000000000
 S 1 
   1       0.7076466000      1.0000000000
 S 1 
   1       0.3430122000      1.0000000000
 S 1 
   1       0.1669453000      1.0000000000
 P 2 
   1      13.5472892000     -0.6769313712
   2       5.4669419000     -0.3779500978
 P 1 
   1       2.1751721000      1.0000000000
 P 1 
   1       0.8582194000      1.0000000000
 P 1 
   1       0.3376720000      1.0000000000
 D 2 
   1       5.9287253000     -0.3533329857
   2       1.9809209000     -0.7456525731
 D 1 
   1       0.8055417000     -1.0000000000
 D 1 
   1       0.3531244000     -1.0000000000
 F 2 
   1       1.6755626000      0.6311076882
   2       0.5997536000      0.4968166032
 G 1 
   1       1.0024600000     -1.0000000000
  end;

------------------------------------------------------------------------------
                             ORCA STARTUP CALCULATIONS
                           -- RI-GTO INTEGRALS CHOSEN --
------------------------------------------------------------------------------
------------------------------------------------------------------------------
                   ___                                                        
                  /   \      - P O W E R E D   B Y -                         
                 /     \                                                     
                 |  |  |   _    _      __       _____    __    __             
                 |  |  |  | |  | |    /  \     |  _  \  |  |  /  |          
                  \  \/   | |  | |   /    \    | | | |  |  | /  /          
                 / \  \   | |__| |  /  /\  \   | |_| |  |  |/  /          
                |  |  |   |  __  | /  /__\  \  |    /   |      \           
                |  |  |   | |  | | |   __   |  |    \   |  |\   \          
                \     /   | |  | | |  |  |  |  | |\  \  |  | \   \       
                 \___/    |_|  |_| |__|  |__|  |_| \__\ |__|  \__/        
                                                                              
                      - O R C A' S   B I G   F R I E N D -                    
                                      &                                       
                       - I N T E G R A L  F E E D E R -                       
                                                                              
 v1 FN, 2020, v2 2021, v3 2022-2024                                           
------------------------------------------------------------------------------


----------------------
SHARK INTEGRAL PACKAGE
----------------------

Number of atoms                             ...     20
Number of basis functions                   ...     60
Number of shells                            ...     40
Maximum angular momentum                    ...      1
Integral batch strategy                     ... SHARK/LIBINT Hybrid
RI-J (if used) integral strategy            ... SPLIT-RIJ (Revised 2003 algorithm where possible)
Printlevel                                  ...      1
Contraction scheme used                     ... SEGMENTED contraction
Prescreening option                         ... SCHWARTZ
   Thresh                                   ... 1.000e-10
   Tcut                                     ... 1.000e-11
   Tpresel                                  ... 1.000e-11 
Coulomb Range Separation                    ... NOT USED
Exchange Range Separation                   ... NOT USED
Multipole approximations                    ... NOT USED
Finite Nucleus Model                        ... NOT USED
CABS basis                                  ... NOT available
Auxiliary Coulomb fitting basis             ... AVAILABLE
   # of basis functions in Aux-J            ...    600
   # of shells in Aux-J                     ...    200
   Maximum angular momentum in Aux-J        ...      4
Auxiliary J/K fitting basis                 ... NOT available
Auxiliary Correlation fitting basis         ... NOT available
Auxiliary 'external' fitting basis          ... NOT available

Checking pre-screening integrals            ... done (  0.0 sec) Dimension = 40
   => SHARK Basis and OBASIS are compatible. Storing Pre-screening
Shell pair information
Shell pair cut-off parameter TPreSel        ...   1.0e-11
Total number of shell pairs                 ...       820
Shell pairs after pre-screening             ...       750
Total number of primitive shell pairs       ...      7380
Primitive shell pairs kept                  ...      4803
          la=0 lb=0:    405 shell pairs
          la=1 lb=0:    290 shell pairs
          la=1 lb=1:     55 shell pairs

Checking whether 4 symmetric matrices of dimension 60 fit in memory
:Max Core in MB      =   4096.00
 MB in use           =      4.67
 MB left             =   4091.33
 MB needed           =      0.06
 Data fit in memory  = YES
Calculating RI/J V-Matrix + Cholesky decomp.... done (  0.0 sec)
Calculating Nuclear repulsion               ... done (  0.0 sec) ENN=    445.936977869861 Eh

Diagonalization of the overlap matrix:
Smallest eigenvalue                        ... 2.489e+00
Time for diagonalization                   ...    0.000 sec
Threshold for overlap eigenvalues          ... 1.000e-07
Number of eigenvalues below threshold      ... 0
Time for construction of square roots      ...    0.000 sec
Total time needed                          ...    0.001 sec

-------------------
DFT GRID GENERATION
-------------------

General Integration Accuracy     IntAcc      ... 4.388
Radial Grid Type                 RadialGrid  ... OptM3 with GC (2021)
Angular Grid (max. ang.)         AngularGrid ... 4 (Lebedev-302)
Angular grid pruning method      GridPruning ... 4 (adaptive)
Weight generation scheme         WeightScheme... mBecke (2022)
Basis function cutoff            BFCut       ... 1.0000e-10
Integration weight cutoff        WCut        ... 1.0000e-14
Partially contracted basis set               ... off
Rotationally invariant grid construction     ... off
Angular grids for H and He will be reduced by one unit

Total number of grid points                  ...    92318
Total number of batches                      ...     1450
Average number of points per batch           ...       63
Average number of grid points per atom       ...     4616

--------------------
COSX GRID GENERATION
--------------------

GRIDX 1
-------
General Integration Accuracy     IntAcc      ... 3.816
Radial Grid Type                 RadialGrid  ... OptM3 with GC (2021)
Angular Grid (max. ang.)         AngularGrid ... 1 (Lebedev-50)
Angular grid pruning method      GridPruning ... 4 (adaptive)
Weight generation scheme         WeightScheme... mBecke (2022)
Basis function cutoff            BFCut       ... 1.0000e-10
Integration weight cutoff        WCut        ... 1.0000e-14
Partially contracted basis set               ... on
Rotationally invariant grid construction     ... off
Angular grids for H and He will be reduced by one unit

Total number of grid points                  ...    11840
Total number of batches                      ...      104
Average number of points per batch           ...      113
Average number of grid points per atom       ...      592
UseSFitting                                  ... on

GRIDX 2
-------
General Integration Accuracy     IntAcc      ... 4.020
Radial Grid Type                 RadialGrid  ... OptM3 with GC (2021)
Angular Grid (max. ang.)         AngularGrid ... 2 (Lebedev-110)
Angular grid pruning method      GridPruning ... 4 (adaptive)
Weight generation scheme         WeightScheme... mBecke (2022)
Basis function cutoff            BFCut       ... 1.0000e-10
Integration weight cutoff        WCut        ... 1.0000e-14
Partially contracted basis set               ... on
Rotationally invariant grid construction     ... off
Angular grids for H and He will be reduced by one unit

Total number of grid points                  ...    25542
Total number of batches                      ...      212
Average number of points per batch           ...      120
Average number of grid points per atom       ...     1277
UseSFitting                                  ... on

GRIDX 3
-------
General Integration Accuracy     IntAcc      ... 4.338
Radial Grid Type                 RadialGrid  ... OptM3 with GC (2021)
Angular Grid (max. ang.)         AngularGrid ... 3 (Lebedev-194)
Angular grid pruning method      GridPruning ... 4 (adaptive)
Weight generation scheme         WeightScheme... mBecke (2022)
Basis function cutoff            BFCut       ... 1.0000e-10
Integration weight cutoff        WCut        ... 1.0000e-14
Partially contracted basis set               ... on
Rotationally invariant grid construction     ... off
Angular grids for H and He will be reduced by one unit

Total number of grid points                  ...    55986
Total number of batches                      ...      446
Average number of points per batch           ...      125
Average number of grid points per atom       ...     2799
UseSFitting                                  ... on
Grids setup in   0.6 sec
Initializing property integral containers    ... done (  0.0 sec)

SHARK setup successfully completed in   0.6 seconds

Maximum memory used throughout the entire STARTUP-calculation: 32.0 MB
-------------------------------------------------------------------------------
                                 ORCA GUESS
                   Start orbitals & Density for SCF / CASSCF
-------------------------------------------------------------------------------

------------
SCF SETTINGS
------------
Hamiltonian:
 Density Functional     Method          .... DFT(GTOs)
 Exchange Functional    Exchange        .... B88
   X-Alpha parameter    XAlpha          ....  0.666667
   Becke's b parameter  XBeta           ....  0.004200
 Correlation Functional Correlation     .... LYP
 LDA part of GGA corr.  LDAOpt          .... VWN-5
 Gradients option       PostSCFGGA      .... off
 Hybrid DFT is turned on
   Fraction HF Exchange ScalHFX         ....  0.200000
   Scaling of DF-GGA-X  ScalDFX         ....  0.720000
   Scaling of DF-GGA-C  ScalDFC         ....  0.810000
   Scaling of DF-LDA-C  ScalLDAC        ....  1.000000
   Perturbative correction              ....  0.000000
   NL short-range parameter             ....  4.800000
 RI-approximation to the Coulomb term is turned on
   Number of AuxJ basis functions       .... 600
   RIJ-COSX (HFX calculated with COS-X)).... on


General Settings:
 Integral files         IntName         .... dvb_td
 Hartree-Fock type      HFTyp           .... RHF
 Total Charge           Charge          ....    0
 Multiplicity           Mult            ....    1
 Number of Electrons    NEL             ....   70
 Basis Dimension        Dim             ....   60
 Nuclear Repulsion      ENuc            ....    445.9369778699 Eh

 Symmetry handling      UseSym         .... ON
 Point group                           .... C2h
 Symmetry-adapted orbitals             .... C2h
 Petite-list algorithm                 .... OFF
 Number of irreps                      .... 4
   Irrep   Ag has   25 symmetry adapted basis functions (ofs=   0)
   Irrep   Bg has    5 symmetry adapted basis functions (ofs=  25)
   Irrep   Au has    5 symmetry adapted basis functions (ofs=  30)
   Irrep   Bu has   25 symmetry adapted basis functions (ofs=  35)

Convergence Acceleration:
 AO-DIIS                CNVDIIS         .... on
   Start iteration      DIISMaxIt       ....    12
   Startup error        DIISStart       ....  0.200000
   # of expansion vecs  DIISMaxEq       ....     5
   Bias factor          DIISBfac        ....   1.050
   Max. coefficient     DIISMaxC        ....  10.000
 MO-DIIS                CNVKDIIS        .... off
 Trust-Rad. Augm. Hess. CNVTRAH         .... auto
   Auto Start mean grad. ratio tolernc. ....  1.125000
   Auto Start start iteration           ....    50
   Auto Start num. interpolation iter.  ....    10
   Max. Number of Micro iterations      ....    24
   Max. Number of Macro iterations      .... Maxiter - #DIIS iter
   Number of Davidson start vectors     ....     2
   Converg. threshold    (grad. norm)   ....   5.000e-05
   Grad. Scal. Fac. for Micro threshold ....   0.100
   Minimum threshold for Micro iter.    ....   1.000e-02
   NR start threshold (gradient norm)   ....   1.000e-04
   Initial trust radius                 ....   0.400
   Minimum AH scaling param. (alpha)    ....   1.000
   Maximum AH scaling param. (alpha)    .... 1000.000
   Quad. conv. algorithm                .... NR
   White noise on init. David. guess    .... on
   Maximum white noise                  ....   0.010
   Pseudo random numbers                .... off
   Inactive MOs                         .... canonical
   Orbital update algorithm             .... Taylor
   Preconditioner                       .... Diag
   Full preconditioner red. dimension   ....   250
 SOSCF                 CNVSOSCF           .... on
   Start iteration     SOSCFMaxIt         ....   150
   Startup grad/error  SOSCFStart         ....  0.003300
   Hessian update      SOSCFHessUp        .... L-BFGS
   Autom. constraints  SOSCFAutoConstrain .... off
 Level Shifting         CNVShift        .... on
   Level shift para.    LevelShift      ....    0.2500
   Turn off err/grad.   ShiftErr        ....    0.0010
 Zerner damping         CNVZerner       .... off
 Static damping         CNVDamp         .... on
   Fraction old density DampFac         ....    0.7000
   Max. Damping (<1)    DampMax         ....    0.9800
   Min. Damping (>=0)   DampMin         ....    0.0000
   Turn off err/grad.   DampErr         ....    0.1000

SCF Procedure:
 Maximum # iterations   MaxIter         ....   125
 SCF integral mode      SCFMode         .... Direct
   Integral package                     .... SHARK and LIBINT hybrid scheme
 Reset frequency        DirectResetFreq ....    20
 Integral Threshold     Thresh          ....  1.000e-10 Eh
 Primitive CutOff       TCut            ....  1.000e-11 Eh

Convergence Tolerance:
 Convergence Check Mode ConvCheckMode   .... Total+1el-Energy
 Convergence forced     ConvForced      .... 1
 Energy Change          TolE            ....  1.000e-06 Eh
 1-El. energy change                    ....  1.000e-03 Eh
 Orbital Gradient       TolG            ....  5.000e-05
 Orbital Rotation angle TolX            ....  5.000e-05
 DIIS Error             TolErr          ....  1.000e-06

------------------------------
INITIAL GUESS: MODEL POTENTIAL
------------------------------
Loading Hartree-Fock densities                     ... done
Calculating cut-offs                               ... done
Initializing the effective Hamiltonian             ... done
Setting up the integral package (SHARK)            ... done
Starting the Coulomb interaction                   ... done (   0.0 sec)
Making the grid                                    ... done (   0.1 sec)
Mapping shells                                     ... done
Starting the XC term evaluation                    ... done (   0.0 sec)
  promolecular density results
     # of electrons  =     69.991104205
     EX              =    -54.264379087
     EC              =     -2.295156935
     EX+EC           =    -56.559536022
Diagonalizing the Hamiltonian                      ... done (   0.0 sec)
Now organizing SCF variables                       ... done
Number of occupied orbitals per irrep:
  Ag   -   15
  Bg   -    3
  Au   -    2
  Bu   -   15
                      ------------------
                      INITIAL GUESS DONE (   0.1 sec)
                      ------------------
----------------------
INITIAL GUESS ORBITALS
----------------------
                      0         1         2         3         4         5   
                  -9.91472  -9.91472  -9.91139  -9.91127  -9.91090  -9.91089
                   2.00000   2.00000   2.00000   2.00000   2.00000   2.00000
                  --------  --------  --------  --------  --------  --------
  0C   1s         0.004661 -0.004637 -0.087916  0.008137 -0.077019 -0.055995
  0C   2s         0.001103 -0.001085 -0.014973  0.001270 -0.010190 -0.006885
  0C   1pz        0.000000  0.000000  0.000000  0.000000  0.000000  0.000000
  0C   1px       -0.000506  0.000506 -0.003125 -0.000774  0.003850  0.004738
  0C   1py        0.000013 -0.000015  0.000900 -0.005728 -0.000801 -0.000806
  1C   1s        -0.004661 -0.004637  0.087916  0.008137 -0.077019  0.055995
  1C   2s        -0.001103 -0.001085  0.014973  0.001270 -0.010190  0.006885
  1C   1pz        0.000000  0.000000  0.000000  0.000000  0.000000  0.000000
  1C   1px       -0.000506 -0.000506 -0.003125  0.000774 -0.003850  0.004738
  1C   1py        0.000013  0.000015  0.000900  0.005728  0.000801 -0.000806
  2C   1s        -0.002134  0.001873  0.450583  0.454271  0.058933 -0.068591
  2C   2s        -0.000235  0.000193  0.027818  0.026558  0.003377 -0.003299
  2C   1pz        0.000000  0.000000  0.000000  0.000000  0.000000  0.000000
  2C   1px        0.000082 -0.000092  0.003545  0.004047 -0.000611 -0.000909
  2C   1py        0.000044 -0.000030 -0.001956 -0.001099 -0.000374 -0.000118
  3C   1s         0.002134  0.001873 -0.450583  0.454271  0.058933  0.068591
  3C   2s         0.000235  0.000193 -0.027818  0.026558  0.003377  0.003299
  3C   1pz        0.000000  0.000000  0.000000  0.000000  0.000000  0.000000
  3C   1px        0.000082  0.000092  0.003545 -0.004047  0.000611 -0.000909
  3C   1py        0.000044  0.000030 -0.001956  0.001099  0.000374 -0.000118
  4C   1s         0.003904  0.003153 -0.518499 -0.531573  0.025277  0.079095
  4C   2s         0.000345  0.000272 -0.030322 -0.029602  0.001537  0.003626
  4C   1pz        0.000000  0.000000  0.000000  0.000000  0.000000  0.000000
  4C   1px        0.000109  0.000136  0.003606  0.003688  0.000735 -0.000784
  4C   1py       -0.000047 -0.000036  0.000877  0.000021 -0.000547  0.000368
  5C   1s        -0.003904  0.003153  0.518499 -0.531573  0.025277 -0.079095
  5C   2s        -0.000345  0.000272  0.030322 -0.029602  0.001537 -0.003626
  5C   1pz        0.000000  0.000000  0.000000  0.000000  0.000000  0.000000
  5C   1px        0.000109 -0.000136  0.003606 -0.003688 -0.000735 -0.000784
  5C   1py       -0.000047  0.000036  0.000877 -0.000021  0.000547  0.000368
  6H   1s         0.000012 -0.000007 -0.004559 -0.004524 -0.000609  0.000670
  7H   1s        -0.000012 -0.000007  0.004559 -0.004524 -0.000609 -0.000670
  8H   1s        -0.000178 -0.000172  0.005238  0.005309 -0.000404 -0.000648
  9H   1s         0.000178 -0.000172 -0.005238  0.005309 -0.000404  0.000648
 10C   1s         0.067128  0.067092 -0.096105 -0.018147  0.689488 -0.686722
 10C   2s         0.011159  0.011154 -0.005463 -0.000899  0.032316 -0.031954
 10C   1pz        0.000000  0.000000  0.000000  0.000000  0.000000  0.000000
 10C   1px        0.003824  0.003826  0.000603  0.000010  0.000374 -0.000527
 10C   1py        0.003541  0.003541 -0.000260 -0.000166  0.000745 -0.000709
 11C   1s        -0.067128  0.067092  0.096105 -0.018147  0.689488  0.686722
 11C   2s        -0.011159  0.011154  0.005463 -0.000899  0.032316  0.031954
 11C   1pz        0.000000  0.000000  0.000000  0.000000  0.000000  0.000000
 11C   1px        0.003824 -0.003826  0.000603 -0.000010 -0.000374 -0.000527
 11C   1py        0.003541 -0.003541 -0.000260  0.000166 -0.000745 -0.000709
 12H   1s        -0.000813 -0.000813  0.001015  0.000192 -0.006828  0.006780
 13H   1s         0.000813 -0.000813 -0.001015  0.000192 -0.006828 -0.006780
 14C   1s        -0.696808 -0.696817 -0.014333 -0.003023  0.068216 -0.066906
 14C   2s        -0.033383 -0.033382  0.000564  0.000123 -0.004752  0.004751
 14C   1pz        0.000000  0.000000  0.000000  0.000000  0.000000  0.000000
 14C   1px        0.001626  0.001625 -0.000601 -0.000105  0.003675 -0.003635
 14C   1py        0.001518  0.001518 -0.000389 -0.000051  0.003237 -0.003238
 15C   1s         0.696808 -0.696817  0.014333 -0.003023  0.068216  0.066906
 15C   2s         0.033383 -0.033382 -0.000564  0.000123 -0.004752 -0.004751
 15C   1pz        0.000000  0.000000  0.000000  0.000000  0.000000  0.000000
 15C   1px        0.001626 -0.001625 -0.000601  0.000105 -0.003675 -0.003635
 15C   1py        0.001518 -0.001518 -0.000389  0.000051 -0.003237 -0.003238
 16H   1s         0.006784  0.006784 -0.000057 -0.000146 -0.000506  0.000527
 17H   1s        -0.006784  0.006784  0.000057 -0.000146 -0.000506 -0.000527
 18H   1s         0.006797  0.006797  0.000131  0.000030 -0.000498  0.000482
 19H   1s        -0.006797  0.006797 -0.000131  0.000030 -0.000498 -0.000482
                      6         7         8         9        10        11   
                  -9.91033  -9.91032  -9.90489  -9.90481  -0.88631  -0.83323
                   2.00000   2.00000   2.00000   2.00000   2.00000   2.00000
                  --------  --------  --------  --------  --------  --------
  0C   1s        -0.006500 -0.090935  0.692161 -0.689767 -0.107210 -0.099162
  0C   2s        -0.000999 -0.012959  0.030993 -0.030503  0.269716  0.259769
  0C   1pz        0.000000  0.000000  0.000000  0.000000  0.000000  0.000000
  0C   1px       -0.001191 -0.004002  0.001161 -0.000806  0.049903 -0.029225
  0C   1py       -0.005552  0.000192 -0.000050 -0.000010 -0.007080  0.001996
  1C   1s         0.006500 -0.090935 -0.692161 -0.689767 -0.107210  0.099162
  1C   2s         0.000999 -0.012959 -0.030993 -0.030503  0.269716 -0.259769
  1C   1pz        0.000000  0.000000  0.000000  0.000000  0.000000  0.000000
  1C   1px       -0.001191  0.004002  0.001161  0.000806 -0.049903 -0.029225
  1C   1py       -0.005552 -0.000192 -0.000050  0.000010  0.007080  0.001996
  2C   1s         0.528203  0.524579  0.057808 -0.071584 -0.099105 -0.035703
  2C   2s         0.020152  0.021055 -0.003907  0.004042  0.249846  0.093745
  2C   1pz        0.000000  0.000000  0.000000  0.000000  0.000000  0.000000
  2C   1px       -0.002708 -0.003142  0.003405 -0.002667  0.020201 -0.056564
  2C   1py       -0.000276 -0.000543  0.003678 -0.003648 -0.061781 -0.029776
  3C   1s        -0.528203  0.524579 -0.057808 -0.071584 -0.099105  0.035703
  3C   2s        -0.020152  0.021055  0.003907  0.004042  0.249846 -0.093745
  3C   1pz        0.000000  0.000000  0.000000  0.000000  0.000000  0.000000
  3C   1px       -0.002708  0.003142  0.003405  0.002667 -0.020201 -0.056564
  3C   1py       -0.000276  0.000543  0.003678  0.003648  0.061781 -0.029776
  4C   1s         0.460206  0.449538 -0.056316 -0.069566 -0.099087  0.041600
  4C   2s         0.016085  0.016787  0.003901  0.004071  0.250237 -0.109880
  4C   1pz        0.000000  0.000000  0.000000  0.000000  0.000000  0.000000
  4C   1px        0.003010  0.003393  0.002057  0.001362 -0.038731 -0.043583
  4C   1py       -0.000988 -0.001514 -0.004540 -0.004256 -0.052255  0.046022
  5C   1s        -0.460206  0.449538  0.056316 -0.069566 -0.099087 -0.041600
  5C   2s        -0.016085  0.016787 -0.003901  0.004071  0.250237  0.109880
  5C   1pz        0.000000  0.000000  0.000000  0.000000  0.000000  0.000000
  5C   1px        0.003010 -0.003393  0.002057 -0.001362  0.038731 -0.043583
  5C   1py       -0.000988  0.001514 -0.004540  0.004256  0.052255  0.046022
  6H   1s        -0.004993 -0.005145 -0.000405  0.000649  0.036001  0.019054
  7H   1s         0.004993 -0.005145  0.000405  0.000649  0.036001 -0.019054
  8H   1s        -0.004330 -0.004403  0.000418  0.000653  0.036491 -0.023255
  9H   1s         0.004330 -0.004403 -0.000418  0.000653  0.036491  0.023255
 10C   1s         0.000669 -0.071416 -0.069392 -0.069437 -0.047076  0.117250
 10C   2s        -0.000073 -0.002318  0.002584  0.002634  0.121312 -0.305486
 10C   1pz        0.000000  0.000000  0.000000  0.000000  0.000000  0.000000
 10C   1px        0.000034 -0.000704 -0.004406 -0.004454 -0.024727 -0.007656
 10C   1py        0.000018  0.000079  0.000827  0.000834  0.015878 -0.047648
 11C   1s        -0.000669 -0.071416  0.069392 -0.069437 -0.047076 -0.117250
 11C   2s         0.000073 -0.002318 -0.002584  0.002634  0.121312  0.305486
 11C   1pz        0.000000  0.000000  0.000000  0.000000  0.000000  0.000000
 11C   1px        0.000034  0.000704 -0.004406  0.004454  0.024727 -0.007656
 11C   1py        0.000018 -0.000079  0.000827 -0.000834 -0.015878 -0.047648
 12H   1s         0.000014  0.000595  0.000607  0.000608  0.019069 -0.054313
 13H   1s        -0.000014  0.000595 -0.000607  0.000608  0.019069  0.054313
 14C   1s         0.000987 -0.002884 -0.002526 -0.002583 -0.024074  0.087609
 14C   2s         0.000032  0.000550  0.000499  0.000503  0.061742 -0.229327
 14C   1pz        0.000000  0.000000  0.000000  0.000000  0.000000  0.000000
 14C   1px        0.000011 -0.000253 -0.000216 -0.000219 -0.022031  0.062448
 14C   1py       -0.000038 -0.000394 -0.000468 -0.000468 -0.014325  0.049117
 15C   1s        -0.000987 -0.002884  0.002526 -0.002583 -0.024074 -0.087609
 15C   2s        -0.000032  0.000550 -0.000499  0.000503  0.061742  0.229327
 15C   1pz        0.000000  0.000000  0.000000  0.000000  0.000000  0.000000
 15C   1px        0.000011  0.000253 -0.000216  0.000219  0.022031  0.062448
 15C   1py       -0.000038  0.000394 -0.000468  0.000468  0.014325  0.049117
 16H   1s         0.000099  0.000136  0.000139  0.000132  0.010468 -0.041169
 17H   1s        -0.000099  0.000136 -0.000139  0.000132  0.010468  0.041169
 18H   1s        -0.000023 -0.000011  0.000032  0.000033  0.008239 -0.037517
 19H   1s         0.000023 -0.000011 -0.000032  0.000033  0.008239  0.037517
                     12        13        14        15        16        17   
                  -0.80546  -0.78231  -0.75695  -0.67410  -0.64757  -0.61384
                   2.00000   2.00000   2.00000   2.00000   2.00000   2.00000
                  --------  --------  --------  --------  --------  --------
  0C   1s         0.005001 -0.015512 -0.106784  0.082675  0.049928  0.009260
  0C   2s        -0.016148  0.041716  0.290130 -0.239073 -0.146506 -0.025933
  0C   1pz        0.000000  0.000000  0.000000  0.000000  0.000000  0.000000
  0C   1px        0.093625  0.024263  0.063195  0.075552  0.057571 -0.153656
  0C   1py       -0.009034  0.128528 -0.019962 -0.116464  0.211662  0.067079
  1C   1s         0.005001  0.015512  0.106784  0.082675  0.049928 -0.009260
  1C   2s        -0.016148 -0.041716 -0.290130 -0.239073 -0.146506  0.025933
  1C   1pz        0.000000  0.000000  0.000000  0.000000  0.000000  0.000000
  1C   1px       -0.093625  0.024263  0.063195 -0.075552 -0.057571 -0.153656
  1C   1py        0.009034  0.128528 -0.019962  0.116464 -0.211662  0.067079
  2C   1s        -0.043280 -0.135855 -0.042141 -0.004980 -0.113025  0.047964
  2C   2s         0.112869  0.367534  0.116403  0.012596  0.336669 -0.148174
  2C   1pz        0.000000  0.000000  0.000000  0.000000  0.000000  0.000000
  2C   1px        0.036805  0.064883 -0.097388  0.181420 -0.044064 -0.004861
  2C   1py       -0.018806 -0.009516 -0.045420  0.041703  0.064221  0.012288
  3C   1s        -0.043280  0.135855  0.042141 -0.004980 -0.113025 -0.047964
  3C   2s         0.112869 -0.367534 -0.116403  0.012596  0.336669  0.148174
  3C   1pz        0.000000  0.000000  0.000000  0.000000  0.000000  0.000000
  3C   1px       -0.036805  0.064883 -0.097388 -0.181420  0.044064 -0.004861
  3C   1py        0.018806 -0.009516 -0.045420 -0.041703 -0.064221  0.012288
  4C   1s        -0.038587 -0.121036  0.076940 -0.081261  0.064754 -0.031289
  4C   2s         0.099994  0.327335 -0.212137  0.233782 -0.193973  0.096675
  4C   1pz        0.000000  0.000000  0.000000  0.000000  0.000000  0.000000
  4C   1px       -0.048011 -0.080773 -0.046761 -0.052968 -0.181661  0.081230
  4C   1py       -0.004366  0.029087  0.064083  0.073339  0.094412 -0.046383
  5C   1s        -0.038587  0.121036 -0.076940 -0.081261  0.064754  0.031289
  5C   2s         0.099994 -0.327335  0.212137  0.233782 -0.193973 -0.096675
  5C   1pz        0.000000  0.000000  0.000000  0.000000  0.000000  0.000000
  5C   1px        0.048011 -0.080773 -0.046761  0.052968  0.181661  0.081230
  5C   1py        0.004366  0.029087  0.064083 -0.073339 -0.094412 -0.046383
  6H   1s         0.017381  0.078115  0.026066 -0.007138  0.134935 -0.036937
  7H   1s         0.017381 -0.078115 -0.026066 -0.007138  0.134935  0.036937
  8H   1s         0.012637  0.070284 -0.044980  0.080882 -0.076971  0.043338
  9H   1s         0.012637 -0.070284  0.044980  0.080882 -0.076971 -0.043338
 10C   1s         0.122147  0.000647 -0.050630  0.048510 -0.000125  0.099695
 10C   2s        -0.320523 -0.002650  0.133167 -0.147970 -0.000782 -0.311148
 10C   1pz        0.000000  0.000000  0.000000  0.000000  0.000000  0.000000
 10C   1px       -0.070723  0.019854  0.137376  0.149224  0.073910  0.060382
 10C   1py       -0.060158  0.021492  0.046623  0.075802 -0.051882  0.117446
 11C   1s         0.122147 -0.000647  0.050630  0.048510 -0.000125 -0.099695
 11C   2s        -0.320523  0.002650 -0.133167 -0.147970 -0.000782  0.311148
 11C   1pz        0.000000  0.000000  0.000000  0.000000  0.000000  0.000000
 11C   1px        0.070723  0.019854  0.137376 -0.149224 -0.073910  0.060382
 11C   1py        0.060158  0.021492  0.046623 -0.075802  0.051882  0.117446
 12H   1s        -0.060509 -0.006972  0.027897 -0.058541  0.032234 -0.143638
 13H   1s        -0.060509  0.006972 -0.027897 -0.058541  0.032234  0.143638
 14C   1s         0.119618 -0.013001 -0.104300 -0.082178 -0.031188 -0.088955
 14C   2s        -0.317547  0.034468  0.285467  0.241323  0.095196  0.282220
 14C   1pz        0.000000  0.000000  0.000000  0.000000  0.000000  0.000000
 14C   1px        0.069741 -0.007138 -0.031479  0.027185  0.038259  0.091861
 14C   1py        0.063717 -0.000438 -0.047286  0.016104 -0.024821  0.118619
 15C   1s         0.119618  0.013001  0.104300 -0.082178 -0.031188  0.088955
 15C   2s        -0.317547 -0.034468 -0.285467  0.241323  0.095196 -0.282220
 15C   1pz        0.000000  0.000000  0.000000  0.000000  0.000000  0.000000
 15C   1px       -0.069741 -0.007138 -0.031479 -0.027185 -0.038259  0.091861
 15C   1py       -0.063717 -0.000438 -0.047286 -0.016104  0.024821  0.118619
 16H   1s        -0.058864  0.009599  0.056855  0.075883  0.010756  0.139416
 17H   1s        -0.058864 -0.009599 -0.056855  0.075883  0.010756 -0.139416
 18H   1s        -0.058254  0.006453  0.064837  0.077425  0.045351  0.115126
 19H   1s        -0.058254 -0.006453 -0.064837  0.077425  0.045351 -0.115126
                     18        19        20        21        22        23   
                  -0.59819  -0.55108  -0.53893  -0.50977  -0.49738  -0.49447
                   2.00000   2.00000   2.00000   2.00000   2.00000   2.00000
                  --------  --------  --------  --------  --------  --------
  0C   1s        -0.046885  0.028305  0.011483 -0.034030 -0.014122 -0.063167
  0C   2s         0.137865 -0.093511 -0.038877  0.115398  0.047490  0.217299
  0C   1pz        0.000000  0.000000  0.000000  0.000000  0.000000  0.000000
  0C   1px        0.163218  0.129608  0.132381 -0.140192 -0.004996  0.122492
  0C   1py        0.015190 -0.048795  0.189708  0.179455  0.004239 -0.088094
  1C   1s        -0.046885  0.028305 -0.011483  0.034030 -0.014122  0.063167
  1C   2s         0.137865 -0.093511  0.038877 -0.115398  0.047490 -0.217299
  1C   1pz        0.000000  0.000000  0.000000  0.000000  0.000000  0.000000
  1C   1px       -0.163218 -0.129608  0.132381 -0.140192  0.004996  0.122492
  1C   1py       -0.015190  0.048795  0.189708  0.179455 -0.004239 -0.088094
  2C   1s         0.011171  0.018778 -0.014766  0.041287  0.024779  0.041184
  2C   2s        -0.040505 -0.071154  0.050886 -0.141365 -0.084279 -0.148406
  2C   1pz        0.000000  0.000000  0.000000  0.000000  0.000000  0.000000
  2C   1px       -0.094702  0.130782 -0.230165 -0.086211 -0.052582  0.067328
  2C   1py       -0.190372 -0.146166 -0.034475 -0.118226  0.006552 -0.181177
  3C   1s         0.011171  0.018778  0.014766 -0.041287  0.024779 -0.041184
  3C   2s        -0.040505 -0.071154 -0.050886  0.141365 -0.084279  0.148406
  3C   1pz        0.000000  0.000000  0.000000  0.000000  0.000000  0.000000
  3C   1px        0.094702 -0.130782 -0.230165 -0.086211  0.052582  0.067328
  3C   1py        0.190372  0.146166 -0.034475 -0.118226 -0.006552 -0.181177
  4C   1s         0.053045 -0.009617  0.028635 -0.046704 -0.024763 -0.034486
  4C   2s        -0.172231  0.022149 -0.092899  0.159916  0.090871  0.126793
  4C   1pz        0.000000  0.000000  0.000000  0.000000  0.000000  0.000000
  4C   1px       -0.025622 -0.135223  0.165613  0.144948  0.115835  0.094984
  4C   1py       -0.203813 -0.104528 -0.106812 -0.071518  0.034995  0.278663
  5C   1s         0.053045 -0.009617 -0.028635  0.046704 -0.024763  0.034486
  5C   2s        -0.172231  0.022149  0.092899 -0.159916  0.090871 -0.126793
  5C   1pz        0.000000  0.000000  0.000000  0.000000  0.000000  0.000000
  5C   1px        0.025622  0.135223  0.165613  0.144948 -0.115835  0.094984
  5C   1py        0.203813  0.104528 -0.106812 -0.071518 -0.034995  0.278663
  6H   1s        -0.082968 -0.118486  0.050691 -0.107060 -0.012468 -0.187243
  7H   1s        -0.082968 -0.118486 -0.050691  0.107060 -0.012468  0.187243
  8H   1s        -0.135621 -0.089010 -0.016546  0.074547  0.091093  0.241626
  9H   1s        -0.135621 -0.089010  0.016546 -0.074547  0.091093 -0.241626
 10C   1s         0.063584 -0.045973 -0.013351 -0.005899  0.014845 -0.007457
 10C   2s        -0.197971  0.149790  0.037659  0.012682 -0.036036  0.022857
 10C   1pz        0.000000  0.000000  0.000000  0.000000  0.000000  0.000000
 10C   1px        0.018739  0.189801 -0.079108  0.258712 -0.052495 -0.036915
 10C   1py        0.063690 -0.102788  0.212812 -0.014393 -0.285514  0.007772
 11C   1s         0.063584 -0.045973  0.013351  0.005899  0.014845  0.007457
 11C   2s        -0.197971  0.149790 -0.037659 -0.012682 -0.036036 -0.022857
 11C   1pz        0.000000  0.000000  0.000000  0.000000  0.000000  0.000000
 11C   1px       -0.018739 -0.189801 -0.079108  0.258712  0.052495 -0.036915
 11C   1py       -0.063690  0.102788  0.212812 -0.014393  0.285514  0.007772
 12H   1s        -0.095039  0.125171 -0.117322  0.052967  0.155916  0.011746
 13H   1s        -0.095039  0.125171  0.117322 -0.052967  0.155916 -0.011746
 14C   1s        -0.061404  0.029569  0.018283  0.016052 -0.004715  0.006087
 14C   2s         0.198847 -0.109160 -0.068020 -0.069920  0.032468 -0.019860
 14C   1pz        0.000000  0.000000  0.000000  0.000000  0.000000  0.000000
 14C   1px        0.087008 -0.024595 -0.208613 -0.028969  0.354628 -0.105333
 14C   1py        0.080863 -0.232758  0.061402 -0.265457 -0.003086  0.108302
 15C   1s        -0.061404  0.029569 -0.018283 -0.016052 -0.004715 -0.006087
 15C   2s         0.198847 -0.109160  0.068020  0.069920  0.032468  0.019860
 15C   1pz        0.000000  0.000000  0.000000  0.000000  0.000000  0.000000
 15C   1px       -0.087008  0.024595 -0.208613 -0.028969 -0.354628 -0.105333
 15C   1py       -0.080863  0.232758  0.061402 -0.265457  0.003086  0.108302
 16H   1s         0.091277 -0.166610  0.030092 -0.176581 -0.018092  0.087590
 17H   1s         0.091277 -0.166610 -0.030092  0.176581 -0.018092 -0.087590
 18H   1s         0.093665 -0.017297 -0.145690  0.002094  0.231214 -0.092606
 19H   1s         0.093665 -0.017297  0.145690 -0.002094  0.231214  0.092606
                     24        25        26        27        28        29   
                  -0.47505  -0.46748  -0.44838  -0.41822  -0.40981  -0.40595
                   2.00000   2.00000   2.00000   2.00000   2.00000   2.00000
                  --------  --------  --------  --------  --------  --------
  0C   1s        -0.004007 -0.001329  0.022448  0.000000  0.015392  0.011646
  0C   2s         0.014156  0.005102 -0.079566  0.000000 -0.062432 -0.050876
  0C   1pz        0.000000  0.000000  0.000000 -0.334595  0.000000  0.000000
  0C   1px        0.103777 -0.146458 -0.070806  0.000000  0.217326  0.249347
  0C   1py        0.126956 -0.125744  0.076435  0.000000 -0.073784  0.148178
  1C   1s         0.004007  0.001329  0.022448  0.000000 -0.015392  0.011646
  1C   2s        -0.014156 -0.005102 -0.079566  0.000000  0.062432 -0.050876
  1C   1pz        0.000000  0.000000  0.000000 -0.334595  0.000000  0.000000
  1C   1px        0.103777 -0.146458  0.070806  0.000000  0.217326 -0.249347
  1C   1py        0.126956 -0.125744 -0.076435  0.000000 -0.073784 -0.148178
  2C   1s        -0.018432  0.010908  0.011193  0.000000 -0.004002  0.000885
  2C   2s         0.054680 -0.042153 -0.050364  0.000000  0.011536 -0.006349
  2C   1pz        0.000000  0.000000  0.000000 -0.298314  0.000000  0.000000
  2C   1px        0.086691  0.230113  0.209491  0.000000  0.040725 -0.230351
  2C   1py       -0.355793  0.023510 -0.132755  0.000000 -0.054368 -0.157201
  3C   1s         0.018432 -0.010908  0.011193  0.000000  0.004002  0.000885
  3C   2s        -0.054680  0.042153 -0.050364  0.000000 -0.011536 -0.006349
  3C   1pz        0.000000  0.000000  0.000000 -0.298314  0.000000  0.000000
  3C   1px        0.086691  0.230113 -0.209491  0.000000  0.040725  0.230351
  3C   1py       -0.355793  0.023510  0.132755  0.000000 -0.054368  0.157201
  4C   1s        -0.014426 -0.004029 -0.006191  0.000000  0.011072 -0.002768
  4C   2s         0.043855  0.007349  0.018760  0.000000 -0.039130  0.020405
  4C   1pz        0.000000  0.000000  0.000000 -0.298241  0.000000  0.000000
  4C   1px       -0.166275 -0.234491 -0.207788  0.000000 -0.003310  0.210273
  4C   1py       -0.223654 -0.000365  0.054588  0.000000  0.123054  0.123353
  5C   1s         0.014426  0.004029 -0.006191  0.000000 -0.011072 -0.002768
  5C   2s        -0.043855 -0.007349  0.018760  0.000000  0.039130  0.020405
  5C   1pz        0.000000  0.000000  0.000000 -0.298241  0.000000  0.000000
  5C   1px       -0.166275 -0.234491  0.207788  0.000000 -0.003310 -0.210273
  5C   1py       -0.223654 -0.000365 -0.054588  0.000000  0.123054 -0.123353
  6H   1s        -0.230752 -0.052335 -0.161174  0.000000 -0.034471 -0.054023
  7H   1s         0.230752  0.052335 -0.161174  0.000000  0.034471 -0.054023
  8H   1s        -0.174773 -0.096618 -0.038611  0.000000  0.035449  0.228995
  9H   1s         0.174773  0.096618 -0.038611  0.000000 -0.035449  0.228995
 10C   1s         0.001077  0.004919 -0.029409  0.000000  0.005994  0.013401
 10C   2s         0.000966 -0.033273  0.118514  0.000000 -0.030325 -0.053631
 10C   1pz        0.000000  0.000000  0.000000 -0.176397  0.000000  0.000000
 10C   1px       -0.085374  0.148079 -0.148839  0.000000 -0.148013  0.216837
 10C   1py       -0.033046  0.227515 -0.171412  0.000000  0.240089 -0.100071
 11C   1s        -0.001077 -0.004919 -0.029409  0.000000 -0.005994  0.013401
 11C   2s        -0.000966  0.033273  0.118514  0.000000  0.030325 -0.053631
 11C   1pz        0.000000  0.000000  0.000000 -0.176397  0.000000  0.000000
 11C   1px       -0.085374  0.148079  0.148839  0.000000 -0.148013 -0.216837
 11C   1py       -0.033046  0.227515  0.171412  0.000000  0.240089  0.100071
 12H   1s         0.019372 -0.142809  0.144683  0.000000 -0.245360  0.103805
 13H   1s        -0.019372  0.142809  0.144683  0.000000  0.245360  0.103805
 14C   1s        -0.002874 -0.010560  0.006595  0.000000 -0.004850 -0.002364
 14C   2s         0.015974  0.021474 -0.012072  0.000000  0.018056  0.002801
 14C   1pz        0.000000  0.000000  0.000000 -0.094097  0.000000  0.000000
 14C   1px        0.062304 -0.276065 -0.034790  0.000000  0.159626 -0.166499
 14C   1py        0.075076 -0.080238  0.295558  0.000000 -0.246685  0.057409
 15C   1s         0.002874  0.010560  0.006595  0.000000  0.004850 -0.002364
 15C   2s        -0.015974 -0.021474 -0.012072  0.000000 -0.018056  0.002801
 15C   1pz        0.000000  0.000000  0.000000 -0.094097  0.000000  0.000000
 15C   1px        0.062304 -0.276065  0.034790  0.000000  0.159626  0.166499
 15C   1py        0.075076 -0.080238 -0.295558  0.000000 -0.246685 -0.057409
 16H   1s         0.038251 -0.026108  0.212011  0.000000 -0.229534  0.105482
 17H   1s        -0.038251  0.026108  0.212011  0.000000  0.229534  0.105482
 18H   1s         0.033522 -0.162889 -0.094558  0.000000  0.203407 -0.154345
 19H   1s        -0.033522  0.162889 -0.094558  0.000000 -0.203407 -0.154345
                     30        31        32        33        34        35   
                  -0.39355  -0.36596  -0.32350  -0.30793  -0.27237  -0.13876
                   2.00000   2.00000   2.00000   2.00000   2.00000   0.00000
                  --------  --------  --------  --------  --------  --------
  0C   1s        -0.012224  0.000000  0.000000  0.000000  0.000000  0.000000
  0C   2s         0.051949  0.000000  0.000000  0.000000  0.000000  0.000000
  0C   1pz        0.000000 -0.341823  0.014825 -0.009709 -0.387262  0.426406
  0C   1px       -0.091895  0.000000  0.000000  0.000000  0.000000  0.000000
  0C   1py        0.275868  0.000000  0.000000  0.000000  0.000000  0.000000
  1C   1s        -0.012224  0.000000  0.000000  0.000000  0.000000  0.000000
  1C   2s         0.051949  0.000000  0.000000  0.000000  0.000000  0.000000
  1C   1pz        0.000000  0.341823  0.014825  0.009709  0.387262  0.426406
  1C   1px        0.091895  0.000000  0.000000  0.000000  0.000000  0.000000
  1C   1py       -0.275868  0.000000  0.000000  0.000000  0.000000  0.000000
  2C   1s        -0.002498  0.000000  0.000000  0.000000  0.000000  0.000000
  2C   2s        -0.000529  0.000000  0.000000  0.000000  0.000000  0.000000
  2C   1pz        0.000000 -0.128034  0.182666 -0.465080 -0.214347 -0.220209
  2C   1px        0.040716  0.000000  0.000000  0.000000  0.000000  0.000000
  2C   1py       -0.236111  0.000000  0.000000  0.000000  0.000000  0.000000
  3C   1s        -0.002498  0.000000  0.000000  0.000000  0.000000  0.000000
  3C   2s        -0.000529  0.000000  0.000000  0.000000  0.000000  0.000000
  3C   1pz        0.000000  0.128034  0.182666  0.465080  0.214347 -0.220209
  3C   1px       -0.040716  0.000000  0.000000  0.000000  0.000000  0.000000
  3C   1py        0.236111  0.000000  0.000000  0.000000  0.000000  0.000000
  4C   1s         0.002518  0.000000  0.000000  0.000000  0.000000  0.000000
  4C   2s        -0.002396  0.000000  0.000000  0.000000  0.000000  0.000000
  4C   1pz        0.000000  0.132570  0.178857 -0.455940  0.235806 -0.274544
  4C   1px       -0.065523  0.000000  0.000000  0.000000  0.000000  0.000000
  4C   1py        0.278339  0.000000  0.000000  0.000000  0.000000  0.000000
  5C   1s         0.002518  0.000000  0.000000  0.000000  0.000000  0.000000
  5C   2s        -0.002396  0.000000  0.000000  0.000000  0.000000  0.000000
  5C   1pz        0.000000 -0.132570  0.178857  0.455940 -0.235806 -0.274544
  5C   1px        0.065523  0.000000  0.000000  0.000000  0.000000  0.000000
  5C   1py       -0.278339  0.000000  0.000000  0.000000  0.000000  0.000000
  6H   1s        -0.231599  0.000000  0.000000  0.000000  0.000000  0.000000
  7H   1s        -0.231599  0.000000  0.000000  0.000000  0.000000  0.000000
  8H   1s         0.145322  0.000000  0.000000  0.000000  0.000000  0.000000
  9H   1s         0.145322  0.000000  0.000000  0.000000  0.000000  0.000000
 10C   1s        -0.003274  0.000000  0.000000  0.000000  0.000000  0.000000
 10C   2s         0.005854  0.000000  0.000000  0.000000  0.000000  0.000000
 10C   1pz        0.000000  0.380287 -0.409588  0.001914 -0.206462  0.273794
 10C   1px       -0.107556  0.000000  0.000000  0.000000  0.000000  0.000000
 10C   1py        0.162925  0.000000  0.000000  0.000000  0.000000  0.000000
 11C   1s        -0.003274  0.000000  0.000000  0.000000  0.000000  0.000000
 11C   2s         0.005854  0.000000  0.000000  0.000000  0.000000  0.000000
 11C   1pz        0.000000 -0.380287 -0.409588 -0.001914  0.206462  0.273794
 11C   1px        0.107556  0.000000  0.000000  0.000000  0.000000  0.000000
 11C   1py       -0.162925  0.000000  0.000000  0.000000  0.000000  0.000000
 12H   1s        -0.181998  0.000000  0.000000  0.000000  0.000000  0.000000
 13H   1s        -0.181998  0.000000  0.000000  0.000000  0.000000  0.000000
 14C   1s        -0.004933  0.000000  0.000000  0.000000  0.000000  0.000000
 14C   2s         0.018908  0.000000  0.000000  0.000000  0.000000  0.000000
 14C   1pz        0.000000  0.276560 -0.419731 -0.011725 -0.404140 -0.462262
 14C   1px        0.061388  0.000000  0.000000  0.000000  0.000000  0.000000
 14C   1py       -0.148296  0.000000  0.000000  0.000000  0.000000  0.000000
 15C   1s        -0.004933  0.000000  0.000000  0.000000  0.000000  0.000000
 15C   2s         0.018908  0.000000  0.000000  0.000000  0.000000  0.000000
 15C   1pz        0.000000 -0.276560 -0.419731  0.011725  0.404140 -0.462262
 15C   1px       -0.061388  0.000000  0.000000  0.000000  0.000000  0.000000
 15C   1py        0.148296  0.000000  0.000000  0.000000  0.000000  0.000000
 16H   1s        -0.130260  0.000000  0.000000  0.000000  0.000000  0.000000
 17H   1s        -0.130260  0.000000  0.000000  0.000000  0.000000  0.000000
 18H   1s         0.102483  0.000000  0.000000  0.000000  0.000000  0.000000
 19H   1s         0.102483  0.000000  0.000000  0.000000  0.000000  0.000000
                     36        37        38        39        40        41   
                  -0.09327  -0.07865  -0.01199   0.06869   0.14069   0.14632
                   0.00000   0.00000   0.00000   0.00000   0.00000   0.00000
                  --------  --------  --------  --------  --------  --------
  0C   1s         0.000000  0.000000  0.000000  0.000000  0.091955 -0.059615
  0C   2s         0.000000  0.000000  0.000000  0.000000 -0.539362  0.344397
  0C   1pz       -0.034874  0.014754  0.513120  0.548450  0.000000  0.000000
  0C   1px        0.000000  0.000000  0.000000  0.000000  0.298710 -0.292884
  0C   1py        0.000000  0.000000  0.000000  0.000000 -0.096644  0.284857
  1C   1s         0.000000  0.000000  0.000000  0.000000  0.091955  0.059615
  1C   2s         0.000000  0.000000  0.000000  0.000000 -0.539362 -0.344397
  1C   1pz       -0.034874 -0.014754  0.513120 -0.548450  0.000000  0.000000
  1C   1px        0.000000  0.000000  0.000000  0.000000 -0.298710 -0.292884
  1C   1py        0.000000  0.000000  0.000000  0.000000  0.096644  0.284857
  2C   1s         0.000000  0.000000  0.000000  0.000000  0.012205  0.023953
  2C   2s         0.000000  0.000000  0.000000  0.000000 -0.076055 -0.139445
  2C   1pz        0.584315 -0.243710 -0.172947 -0.462497  0.000000  0.000000
  2C   1px        0.000000  0.000000  0.000000  0.000000 -0.006269 -0.091116
  2C   1py        0.000000  0.000000  0.000000  0.000000 -0.289430  0.304308
  3C   1s         0.000000  0.000000  0.000000  0.000000  0.012205 -0.023953
  3C   2s         0.000000  0.000000  0.000000  0.000000 -0.076055  0.139445
  3C   1pz        0.584315  0.243710 -0.172947  0.462497  0.000000  0.000000
  3C   1px        0.000000  0.000000  0.000000  0.000000  0.006269 -0.091116
  3C   1py        0.000000  0.000000  0.000000  0.000000  0.289430  0.304308
  4C   1s         0.000000  0.000000  0.000000  0.000000  0.031211 -0.023418
  4C   2s         0.000000  0.000000  0.000000  0.000000 -0.188915  0.136871
  4C   1pz       -0.551217  0.233736 -0.205289  0.465032  0.000000  0.000000
  4C   1px        0.000000  0.000000  0.000000  0.000000 -0.050842 -0.135642
  4C   1py        0.000000  0.000000  0.000000  0.000000 -0.194123  0.212821
  5C   1s         0.000000  0.000000  0.000000  0.000000  0.031211  0.023418
  5C   2s         0.000000  0.000000  0.000000  0.000000 -0.188915 -0.136871
  5C   1pz       -0.551217 -0.233736 -0.205289 -0.465032  0.000000  0.000000
  5C   1px        0.000000  0.000000  0.000000  0.000000  0.050842 -0.135642
  5C   1py        0.000000  0.000000  0.000000  0.000000  0.194123  0.212821
  6H   1s         0.000000  0.000000  0.000000  0.000000  0.349759 -0.268114
  7H   1s         0.000000  0.000000  0.000000  0.000000  0.349759  0.268114
  8H   1s         0.000000  0.000000  0.000000  0.000000  0.351658 -0.159352
  9H   1s         0.000000  0.000000  0.000000  0.000000  0.351658  0.159352
 10C   1s         0.000000  0.000000  0.000000  0.000000 -0.060480 -0.038081
 10C   2s         0.000000  0.000000  0.000000  0.000000  0.346838  0.222426
 10C   1pz        0.001229 -0.527014 -0.522714  0.286746  0.000000  0.000000
 10C   1px        0.000000  0.000000  0.000000  0.000000 -0.385534 -0.327103
 10C   1py        0.000000  0.000000  0.000000  0.000000  0.261132  0.320526
 11C   1s         0.000000  0.000000  0.000000  0.000000 -0.060480  0.038081
 11C   2s         0.000000  0.000000  0.000000  0.000000  0.346838 -0.222426
 11C   1pz        0.001229  0.527014 -0.522714 -0.286746  0.000000  0.000000
 11C   1px        0.000000  0.000000  0.000000  0.000000  0.385534 -0.327103
 11C   1py        0.000000  0.000000  0.000000  0.000000 -0.261132  0.320526
 12H   1s         0.000000  0.000000  0.000000  0.000000  0.150800  0.308439
 13H   1s         0.000000  0.000000  0.000000  0.000000  0.150800 -0.308439
 14C   1s         0.000000  0.000000  0.000000  0.000000  0.035662  0.016876
 14C   2s         0.000000  0.000000  0.000000  0.000000 -0.206040 -0.100881
 14C   1pz        0.016038  0.516569  0.361527 -0.151258  0.000000  0.000000
 14C   1px        0.000000  0.000000  0.000000  0.000000 -0.121935 -0.129101
 14C   1py        0.000000  0.000000  0.000000  0.000000  0.172516  0.304580
 15C   1s         0.000000  0.000000  0.000000  0.000000  0.035662 -0.016876
 15C   2s         0.000000  0.000000  0.000000  0.000000 -0.206040  0.100881
 15C   1pz        0.016038 -0.516569  0.361527  0.151258  0.000000  0.000000
 15C   1px        0.000000  0.000000  0.000000  0.000000  0.121935 -0.129101
 15C   1py        0.000000  0.000000  0.000000  0.000000 -0.172516  0.304580
 16H   1s         0.000000  0.000000  0.000000  0.000000 -0.163614 -0.306048
 17H   1s         0.000000  0.000000  0.000000  0.000000 -0.163614  0.306048
 18H   1s         0.000000  0.000000  0.000000  0.000000  0.354676  0.328241
 19H   1s         0.000000  0.000000  0.000000  0.000000  0.354676 -0.328241
                     42        43        44        45        46        47   
                   0.17582   0.19848   0.21265   0.22462   0.23658   0.23731
                   0.00000   0.00000   0.00000   0.00000   0.00000   0.00000
                  --------  --------  --------  --------  --------  --------
  0C   1s         0.052873 -0.020740 -0.075279 -0.082903  0.015789 -0.119489
  0C   2s        -0.302290  0.127067  0.455628  0.495855 -0.105645  0.730657
  0C   1pz        0.000000  0.000000  0.000000  0.000000  0.000000  0.000000
  0C   1px        0.407248  0.149380 -0.069494  0.132878 -0.162594  0.208233
  0C   1py        0.254893  0.166115 -0.326221 -0.139058  0.129975  0.066806
  1C   1s        -0.052873 -0.020740 -0.075279  0.082903 -0.015789 -0.119489
  1C   2s         0.302290  0.127067  0.455628 -0.495855  0.105645  0.730657
  1C   1pz        0.000000  0.000000  0.000000  0.000000  0.000000  0.000000
  1C   1px        0.407248 -0.149380  0.069494  0.132878 -0.162594 -0.208233
  1C   1py        0.254893 -0.166115  0.326221 -0.139058  0.129975 -0.066806
  2C   1s        -0.026125  0.089394 -0.056164  0.078712 -0.032092  0.110991
  2C   2s         0.156394 -0.550548  0.344958 -0.470831  0.198808 -0.693155
  2C   1pz        0.000000  0.000000  0.000000  0.000000  0.000000  0.000000
  2C   1px        0.280315  0.100634  0.297985  0.095915 -0.293201  0.200684
  2C   1py        0.244617  0.016185 -0.038000 -0.088784  0.256483  0.077005
  3C   1s         0.026125  0.089394 -0.056164 -0.078712  0.032092  0.110991
  3C   2s        -0.156394 -0.550548  0.344958  0.470831 -0.198808 -0.693155
[...]
Number of roots to be determined               ...      5
Maximum size of the expansion space            ...     50
Maximum number of iterations                   ...    100
Convergence tolerance for the residual         ...    1.000e-06
Convergence tolerance for the energies         ...    1.000e-06
Orthogonality tolerance                        ...    1.000e-14
Level Shift                                    ...    0.000e+00
Constructing the preconditioner                ... o.k.
Building the initial guess                     ... o.k.
Number of trial vectors determined             ...     50


                       ****Iteration    0****
   Time for iteration     :  TOTAL=0.2 TRAFO=0.0 COSX=0.1 XC=0.1
   Size of expansion space: 15
   Lowest Energy          :     0.122051927994
   Maximum Energy change  :     0.195032750263 (vector 4)
   Maximum residual norm  :     0.002873129446

                       ****Iteration    1****
   Time for iteration     :  TOTAL=0.2 TRAFO=0.0 COSX=0.2 XC=0.0
   Size of expansion space: 20
   Lowest Energy          :     0.115038691788
   Maximum Energy change  :     0.016892995815 (vector 1)
   Maximum residual norm  :     0.000080925461

                       ****Iteration    2****
   Time for iteration     :  TOTAL=0.2 TRAFO=0.0 COSX=0.2 XC=0.0
   Size of expansion space: 25
   Lowest Energy          :     0.115007011787
   Maximum Energy change  :     0.000293887526 (vector 1)
   Maximum residual norm  :     0.000004632285

                       ****Iteration    3****
   Time for iteration     :  TOTAL=0.2 TRAFO=0.0 COSX=0.2 XC=0.0
   Size of expansion space: 30
   Lowest Energy          :     0.115006705779
   Maximum Energy change  :     0.000013986441 (vector 1)
   Maximum residual norm  :     0.000000136663

      *** CONVERGENCE OF RESIDUAL NORM REACHED ***

Storing the converged CI vectors               ... dvb_td.cis3

                 *** DAVIDSON DONE ***

------------------------------------
TD-DFT/TDA EXCITED STATES (TRIPLETS)
------------------------------------

the weight of the individual excitations are printed if larger than 1.0e-02

STATE  6:  E=   0.115007 au      3.129 eV    25241.1 cm**-1 <S**2> =   2.000000 Sym: Bu Mult 3
    31a ->  38a  :     0.016509 (c=  0.12848765)
    32a ->  37a  :     0.059354 (c= -0.24362771)
    33a ->  36a  :     0.030309 (c= -0.17409499)
    34a ->  35a  :     0.886486 (c=  0.94153364)

STATE  7:  E=   0.155771 au      4.239 eV    34187.7 cm**-1 <S**2> =   2.000000 Sym: Ag Mult 3
    31a ->  37a  :     0.056088 (c= -0.23682851)
    32a ->  35a  :     0.520951 (c= -0.72176949)
    32a ->  38a  :     0.045780 (c=  0.21396192)
    34a ->  37a  :     0.365574 (c=  0.60462726)

STATE  8:  E=   0.172965 au      4.707 eV    37961.4 cm**-1 <S**2> =   2.000000 Sym: Bu Mult 3
    31a ->  36a  :     0.010138 (c= -0.10068665)
    33a ->  35a  :     0.700366 (c=  0.83687870)
    33a ->  38a  :     0.012817 (c=  0.11321058)
    34a ->  36a  :     0.263951 (c= -0.51376181)

STATE  9:  E=   0.182144 au      4.956 eV    39976.0 cm**-1 <S**2> =   2.000000 Sym: Bu Mult 3
    27a ->  37a  :     0.014402 (c=  0.12000769)
    31a ->  35a  :     0.093900 (c=  0.30643071)
    32a ->  37a  :     0.026608 (c=  0.16311865)
    33a ->  36a  :     0.760273 (c= -0.87193637)
    34a ->  35a  :     0.013827 (c= -0.11758855)
    34a ->  36a  :     0.015126 (c= -0.12298958)
    34a ->  38a  :     0.051158 (c=  0.22618208)

STATE 10:  E=   0.194717 au      5.299 eV    42735.4 cm**-1 <S**2> =   2.000000 Sym: Bu Mult 3
    31a ->  36a  :     0.010563 (c=  0.10277427)
    33a ->  35a  :     0.282326 (c=  0.53134319)
    34a ->  36a  :     0.698794 (c=  0.83593907)

Storing amplitudes in GBW file ... 
... GBW file created

-----------------------------
TD-DFT/TDA-EXCITATION SPECTRA
-----------------------------

Center of mass = ( -0.0000,  0.0000,  0.0000)
Generating CIS transition densities           ... done

----------------------------------------------------------------------------------------------------
                     ABSORPTION SPECTRUM VIA TRANSITION ELECTRIC DIPOLE MOMENTS    
----------------------------------------------------------------------------------------------------
     Transition      Energy     Energy  Wavelength fosc(D2)      D2        DX        DY        DZ   
                      (eV)      (cm-1)    (nm)                 (au**2)    (au)      (au)      (au)  
----------------------------------------------------------------------------------------------------
  0-1Ag ->  1-3Bu   3.129492   25241.1   396.2   0.000000000   0.00000   0.00000   0.00000   0.00000
  0-1Ag ->  2-3Ag   4.238734   34187.7   292.5   0.000000000   0.00000   0.00000   0.00000   0.00000
  0-1Ag ->  3-3Bu   4.706612   37961.4   263.4   0.000000000   0.00000   0.00000   0.00000   0.00000
  0-1Ag ->  4-3Bu   4.956390   39976.0   250.2   0.000000000   0.00000   0.00000   0.00000   0.00000
  0-1Ag ->  5-3Bu   5.298518   42735.4   234.0   0.000000000   0.00000   0.00000   0.00000   0.00000
  0-1Ag ->  1-1Bu   5.351898   43166.0   231.7   0.005258659   0.04011   0.16759   0.10964   0.00000
  0-1Ag ->  2-1Bu   5.731733   46229.6   216.3   1.170931472   8.33849  -2.88646  -0.08284   0.00000
  0-1Ag ->  3-1Ag   6.225455   50211.7   199.2   0.000000000   0.00000   0.00000   0.00001  -0.00000
  0-1Ag ->  4-1Bu   7.119923   57426.1   174.1   0.218223420   1.25103   0.43807   1.02914   0.00000
  0-1Ag ->  5-1Ag   7.416177   59815.5   167.2   0.000000005   0.00000  -0.00017  -0.00001  -0.00000

----------------------------------------------------------------------------------------------------
                     ABSORPTION SPECTRUM VIA TRANSITION VELOCITY DIPOLE MOMENTS    
----------------------------------------------------------------------------------------------------
     Transition      Energy     Energy  Wavelength fosc(P2)      P2        PX        PY        PZ   
                      (eV)      (cm-1)    (nm)                 (au**2)    (au)      (au)      (au)  
----------------------------------------------------------------------------------------------------
  0-1Ag ->  1-3Bu   3.129492   25241.1   396.2   0.000000000   0.00000   0.00000   0.00000   0.00000
  0-1Ag ->  2-3Ag   4.238734   34187.7   292.5   0.000000000   0.00000   0.00000   0.00000   0.00000
  0-1Ag ->  3-3Bu   4.706612   37961.4   263.4   0.000000000   0.00000   0.00000   0.00000   0.00000
  0-1Ag ->  4-3Bu   4.956390   39976.0   250.2   0.000000000   0.00000   0.00000   0.00000   0.00000
  0-1Ag ->  5-3Bu   5.298518   42735.4   234.0   0.000000000   0.00000   0.00000   0.00000   0.00000
  0-1Ag ->  1-1Bu   5.351898   43166.0   231.7   0.000146545   0.00004  -0.00649   0.00106  -0.00000
  0-1Ag ->  2-1Bu   5.731733   46229.6   216.3   0.088876300   0.02808   0.16686  -0.01546  -0.00000
  0-1Ag ->  3-1Ag   6.225455   50211.7   199.2   0.000000001   0.00000  -0.00000  -0.00002   0.00000
  0-1Ag ->  4-1Bu   7.119923   57426.1   174.1   0.004933360   0.00194  -0.00767   0.04333  -0.00000
  0-1Ag ->  5-1Ag   7.416177   59815.5   167.2   0.000000000   0.00000  -0.00001   0.00000   0.00000

------------------------------------------------------------------------------------------
                     CD SPECTRUM VIA TRANSITION ELECTRIC DIPOLE MOMENTS    
------------------------------------------------------------------------------------------
     Transition      Energy     Energy  Wavelength    R        MX        MY        MZ   
                      (eV)      (cm-1)    (nm)   (1e40*cgs)   (au)      (au)      (au)  
------------------------------------------------------------------------------------------
  0-1Ag ->  1-3Bu   3.129492   25241.1   396.2   -0.00000   0.00000   0.00000   0.00000
  0-1Ag ->  2-3Ag   4.238734   34187.7   292.5   -0.00000   0.00000   0.00000   0.00000
  0-1Ag ->  3-3Bu   4.706612   37961.4   263.4   -0.00000   0.00000   0.00000   0.00000
  0-1Ag ->  4-3Bu   4.956390   39976.0   250.2   -0.00000   0.00000   0.00000   0.00000
  0-1Ag ->  5-3Bu   5.298518   42735.4   234.0   -0.00000   0.00000   0.00000   0.00000
  0-1Ag ->  1-1Bu   5.351898   43166.0   231.7   -0.00000   0.00000   0.00000   0.00002
  0-1Ag ->  2-1Bu   5.731733   46229.6   216.3    0.00000   0.00000   0.00000  -0.00002
  0-1Ag ->  3-1Ag   6.225455   50211.7   199.2    0.00000  -0.00000  -0.00000   0.00569
  0-1Ag ->  4-1Bu   7.119923   57426.1   174.1   -0.00000   0.00000   0.00000   0.00003
  0-1Ag ->  5-1Ag   7.416177   59815.5   167.2    0.00000   0.00000   0.00000   0.07821

------------------------------------------------------------------------------------------
                     CD SPECTRUM VIA TRANSITION VELOCITY DIPOLE MOMENTS    
------------------------------------------------------------------------------------------
     Transition      Energy     Energy  Wavelength    R        MX        MY        MZ   
                      (eV)      (cm-1)    (nm)   (1e40*cgs)   (au)      (au)      (au)  
------------------------------------------------------------------------------------------
  0-1Ag ->  1-3Bu   3.129492   25241.1   396.2    0.00000   0.00000   0.00000   0.00000
  0-1Ag ->  2-3Ag   4.238734   34187.7   292.5    0.00000   0.00000   0.00000   0.00000
  0-1Ag ->  3-3Bu   4.706612   37961.4   263.4    0.00000   0.00000   0.00000   0.00000
  0-1Ag ->  4-3Bu   4.956390   39976.0   250.2    0.00000   0.00000   0.00000   0.00000
  0-1Ag ->  5-3Bu   5.298518   42735.4   234.0    0.00000   0.00000   0.00000   0.00000
  0-1Ag ->  1-1Bu   5.351898   43166.0   231.7    0.00000   0.00000   0.00000   0.00002
  0-1Ag ->  2-1Bu   5.731733   46229.6   216.3    0.00000   0.00000   0.00000  -0.00002
  0-1Ag ->  3-1Ag   6.225455   50211.7   199.2    0.00000  -0.00000  -0.00000   0.00569
  0-1Ag ->  4-1Bu   7.119923   57426.1   174.1    0.00000   0.00000   0.00000   0.00003
  0-1Ag ->  5-1Ag   7.416177   59815.5   167.2    0.00000   0.00000   0.00000   0.07821

Total run time:        1.995 sec

           *** ORCA-CIS/TD-DFT FINISHED WITHOUT ERROR ***
-----------------------
CIS/TD-DFT TOTAL ENERGY
-----------------------

    E(SCF)  =   -382.055109247 Eh
    DE(CIS) =      0.196678653 Eh (Root  1)
    ----------------------------- ---------
    E(tot)  =   -381.858430595 Eh


Maximum memory used throughout the entire CIS-calculation: 12.8 MB
=> NOW LEAVING ORCA_CIS

-------------------------   --------------------
FINAL SINGLE POINT ENERGY      -381.858430594571
-------------------------   --------------------


------------------------------------------------------------------------------
                              ORCA PROPERTY CALCULATIONS
------------------------------------------------------------------------------

GBWName                                 ... dvb_td.gbw
Number of atoms                         ...     20
Number of basis functions               ...     60
Max core memory                         ...   4096 MB

Electric properties:
Dipole moment                           ... YES
Quadrupole moment                       ...  NO
Static polarizability (Dipole/Dipole)   ...  NO
Static polarizability (Dipole/Quad.)    ...  NO
Static polarizability (Quad./Quad.)     ...  NO
Static polarizability (Velocity)        ...  NO
Static hyperpolarizability              ...  NO

Atomic electric properties:
Dipole moment                           ...  NO
Quadrupole moment                       ...  NO
Static polarizability                   ...  NO

Choice of electric origin               ... Center of mass
Position of electric origin             ...     0.000000     0.000000     0.000000

General magnetic properties:
Magnetizability                         ...  NO

EPR properties:
g-Tensor (aka g-matrix)                 ...  NO
Zero-Field splitting spin-orbit         ...  NO
Zero-field splitting spin-spin          ...  NO
Hyperfine couplings                     ...  NO (   0 nuclei)
Quadrupole couplings                    ...  NO (   0 nuclei)
Contact density                         ...  NO (   0 nuclei)

NMR properties:
Chemical shifts                         ...  NO (   0 nuclei)
Spin-rotation constants                 ...  NO (   0 nuclei)
Spin-spin couplings                     ...  NO (   0 nuclei,    0 pairs)

Choice of magnetic origin               ... GIAO
Position of magnetic origin             ...     0.000000     0.000000     0.000000

Properties with geometric perturbations:
SCF Hessian                             ...  NO
IR spectrum                             ...  NO
VCD spectrum                            ...  NO
X-ray spectroscopy properties:
SCF XES/XAS/RIXS spectra                ...  NO

SCF SOC stabilization energy            ...  NO
Diagonal Born-Oppenheimer correction    ...  NO

-------------
DIPOLE MOMENT
-------------

Method             : SCF
Type of density    : Electron Density
Multiplicity       :   1
Irrep              :   0
Energy             :  -382.0551092472499022 Eh
Basis              : AO
                                X                 Y                 Z
Electronic contribution:      0.000000000      -0.000000000      -0.000000000
Nuclear contribution   :      0.000000000      -0.000000000       0.000000000
                        -----------------------------------------
Total Dipole Moment    :      0.000000000      -0.000000000       0.000000000
                        -----------------------------------------
Magnitude (a.u.)       :      0.000000000
Magnitude (Debye)      :      0.000000000



--------------------
Rotational spectrum 
--------------------
 
Rotational constants in cm-1:             0.153923             0.022856             0.019901 
Rotational constants in MHz :          4614.493931           685.204948           596.613911 

Dipole components along the rotational axes: 
x,y,z [a.u.] :    -0.000000    -0.000000     0.000000 
x,y,z [Debye]:    -0.000000    -0.000000     0.000000 

 

Dipole moment calculation done in   0.0 sec 

Maximum memory used throughout the entire PROP-calculation: 5.1 MB

--------------------------------
SUGGESTED CITATIONS FOR THIS RUN
--------------------------------

Below you find a list of papers that are relevant to this ORCA run
We neither can nor want to force you to cite these papers, but we appreciate if you do
You receive ORCA, which is the product of decades of hard work by many enthusiastic individuals, for free
The only thing we kindly ask in return is that you cite our papers,
We deeply appreciate it, if you show your appreciation for ORCA by not just citing the generic ORCA reference.

Please note that relegating all ORCA citations to the supporting information does *not* help us.
SI sections are not indexed - citations you put there will not count into any citation statistics
But we need these citations in order to attract the funding resources that allow us to do what we are doing

Therefore, if you are a happy ORCA user, please consider citing a few of the papers listed below in the main body of your paper

In addition to the list printed below, the program has created the file dvb_td.bibtex that contains the list in bibtex format
You can import this file easily into all common literature databanks and citation aid programs

It goes without saying that in many instances, there are alternative algorithms to achieve similar
results as the ones you have gotten from ORCA. It is, of course, also the case that in some instances
ORCA just re-implements algorithms worked out by others. We are fully aware of that and we are also
fully appreciative of our colleagues work. Hence this citation list should not be read as indicating
that the listed papers, which are focused on our own work, are the only ones worth citing. It simply
meant to make it easier for users to cite ORCA specific papers. It is not a substitute for doing your
own literature research and citing the relevant literature in a scientifically appropriate manner.

List of essential papers. We consider these as the minimum necessary citations

  1. Neese, F.
     Software update: the ORCA program system, version 6.0
     WIRES Comput. Molec. Sci. 2025 15(1), e70019
     doi.org/10.1002/wcms.70019

List of papers to cite with high priority. The work reported in these papers was absolutely
necessary for this run to complete.
Our perspective: the developers of density functionals and basis sets usually get cited in chemistry papers
Good! But without the algorithms to do something with them, the functionals or basis sets would not do anything.
Hence, in our opinion, the algorithm design and method developments papers are equally worthy of getting cited

  1. Neese, F.; Olbrich, G.
     Efficient use of the resolution of the identity approximation in time-dependent density functional calculations with hybrid density functionals
     Chem. Phys. Lett. 2002 362 , 170-178
     doi.org/10.1016/s0009-2614(02)01053-9
  2. Neese, F.
     An improvement of the resolution of the identity approximation for the formation of the Coulomb matrix
     J. Comp. Chem. 2003 24(14), 1740-1747
     doi.org/10.1002/jcc.10318
  3. Neese, F.; Wennmohs, F.; Hansen, A.; Becker, U.
     Efficient, approximate and parallel Hartree-Fock and hybrid DFT calculations. A 'chain-of-spheres' algorithm for the Hartree-Fock exchange
     Chem. Phys. 2009 356(1-3), 98-109
     doi.org/10.1016/j.chemphys.2008.10.036
  4. Helmich-Paris, B.; de Souza, B.; Neese, F.; Izsák, R.
     An improved chain of spheres for exchange algorithm
     J. Chem. Phys. 2021 155(10), 104109
     doi.org/10.1063/5.0058766
  5. Neese, F.
     The SHARK Integral Generation and Digestion System
     J. Comp. Chem. 2022 44(3), 381
     doi.org/10.1002/jcc.26942

List of suggested additional citations. These are papers that are important in the 'surrounding' of 
of this run, or papers that preceded the highly important papers. If you like your results we are grateful for a citation.

  1. Izsak, R.; Neese, F.
     An overlap fitted chain of spheres exchange method
     J. Chem. Phys. 2011 135 , 144105
     doi.org/10.1063/1.3646921
  2. Izsak, R.; Hansen, A.; Neese, F.
     The resolution of identity and chain of spheres approximations for the LPNO-CCSD singles Fock term
     Molec. Phys. 2012 110 , 2413-2417
     doi.org/10.1080/00268976.2012.687466
  3. Neese, F.
     The ORCA program system
     WIRES Comput. Molec. Sci. 2012 2(1), 73-78
     doi.org/10.1002/wcms.81
  4. Izsak, R.; Neese, F.; Klopper, W.
     Robust fitting techniques in the chain of spheres approximation to the Fock exchange: The role of the complementary space
     J. Chem. Phys. 2013 139 , 
     doi.org/10.1063/1.4819264
  5. Neese, F.
     Software update: the ORCA program system, version 4.0
     WIRES Comput. Molec. Sci. 2018 8(1), 1-6
     doi.org/10.1002/wcms.1327
  6. Neese, F.; Wennmohs, F.; Becker, U.; Riplinger, C.
     The ORCA quantum chemistry program package
     J. Chem. Phys. 2020 152(22), 224108
     doi.org/10.1063/5.0004608
  7. Neese, F.
     Software update: The ORCA program system—Version 5.0
     WIRES Comput. Molec. Sci. 2022 12(1), e1606
     doi.org/10.1002/wcms.1606

List of optional additional citations

  1. Neese, F.
     Approximate second-order SCF convergence for spin unrestricted wavefunctions
     Chem. Phys. Lett. 2000 325(1-3), 93-98
     doi.org/10.1016/s0009-2614(00)00662-x

Timings for individual modules:

Sum of individual times          ...        8.082 sec (=   0.135 min)
Startup calculation              ...        0.663 sec (=   0.011 min)   8.2 %
SCF iterations                   ...        5.292 sec (=   0.088 min)  65.5 %
Property integrals               ...        0.046 sec (=   0.001 min)   0.6 %
Property calculations            ...        0.047 sec (=   0.001 min)   0.6 %
CIS module                       ...        2.034 sec (=   0.034 min)  25.2 %
                             ****ORCA TERMINATED NORMALLY****
TOTAL RUN TIME: 0 days 0 hours 0 minutes 8 seconds 177 msec
